81
 energy: -128.684694064870 gnorm: 0.000220327671 xtb: 6.4.1 (afa7bdf)
Ir       -0.38314731213843   -0.68643457189431    1.60969923318327
C        -1.84272899390775    0.91684627505021    4.21370144690553
C        -0.60245433610916    0.39276836932933    3.57668197216293
C        -0.02631208339828   -0.89552124715714    3.80480278016453
C         1.25789557946049   -0.93540208582656    3.14427468594064
C         2.29794052708016   -1.98175845004239    3.35796465662693
C         1.44421742283909    0.30019083441405    2.46770648944395
C         0.26646276396423    1.11775899158673    2.69486261667714
C         0.16553552533748    2.54951976739771    2.36300486607268
C         0.11712526494775    3.49078032252451    3.38963173122536
C         0.09753436915783    4.84061836114878    3.09864859630556
C         0.12359412015007    5.28956310659900    1.77894310652668
C         0.14951796650683    6.72768719260621    1.47167291867836
C         0.97079169788276    7.21344133216216    0.45566966100257
C         1.01230817006170    8.56537836331145    0.16916242766901
C         0.22944507448960    9.45417754594415    0.88803716386893
C        -0.59099310307909    8.98232890076969    1.89977105025442
C        -0.62850026666158    7.63124318571966    2.19246338310251
C         0.14470181393757    4.34188568651880    0.75646515249976
C         0.16572200398059    2.99114708948945    1.04220409947938
C         2.69340882378364    0.76355200197893    1.80719796228839
C        -0.53778303699623   -1.91560387518784    4.76231890216586
H        -1.65501235765595    1.07660325529221    5.27574952882917
H        -2.66637536597886    0.21169750632188    4.12773747286874
H        -2.13231516067546    1.86458790008547    3.76912701102235
H         2.84589119207879   -1.74840944719385    4.27187217170074
H         3.00853446974319   -2.00862082825483    2.53725927645508
H         1.85756411755386   -2.96865743083042    3.47317331551069
H         0.12817978706491    3.16362894316310    4.41816393070889
H         0.09197723811893    5.55858869001556    3.90490902278305
H         1.59843519846113    6.52988626082264   -0.09729680044677
H         1.66013265010556    8.92865260402763   -0.61549431615310
H         0.26084193568745   10.50992451811970    0.66185332067580
H        -1.20350791607718    9.67172876959909    2.46272052031889
H        -1.28021049161677    7.27287582003151    2.97560794448094
H         0.13385900579831    4.66701487357963   -0.27301503491909
H         0.17484672100453    2.26945277751375    0.23913248010667
H         3.17599438752075   -0.04195126285171    1.25975922353772
H         2.48793283332755    1.58258789756786    1.12387750950860
H         3.38573764198647    1.11760498193441    2.57234000378715
H        -1.62040443550786   -1.87196446279797    4.84126044047495
H        -0.23881512563909   -2.91761032959146    4.46560528724167
H        -0.11719236663287   -1.71956670710498    5.74942195925820
C         3.10435467528900   -7.79517754549965   -0.32398374361332
S         3.31258969938776   -6.91857021395460    1.24609640122474
O         2.98536104850713   -7.81225390879563    2.33265997339852
O         4.61850507140451   -6.30247324417564    1.27045483435734
C         2.07104851119293   -5.61626189659018    1.18208216455500
C         0.80567996178453   -5.85170743584063    1.68701416971116
C        -0.15445010703394   -4.85758451315567    1.61462908341404
C         0.17201184208371   -3.62560350663549    1.04461217933302
N        -0.77186167786949   -2.59337720422931    0.97454798419721
C        -1.94313504032322   -2.80079174000429    0.45937399467036
C        -2.82839312931776   -1.68209113662200    0.39681286394954
C        -4.10535877202897   -1.70173531494217   -0.17518140877970
C        -4.84329288649168   -0.54312859434874   -0.21783102319354
C        -4.29459654039132    0.64386873961424    0.30099426210955
C        -5.02998014641776    1.87754167618588    0.26887776436920
C        -4.69684370773481    3.16064629316365    0.65910426880810
C        -5.81973704864658    3.96136577773500    0.38641699589527
C        -6.75857915529699    3.12191710670366   -0.14813779690796
O        -6.29407611863173    1.87413309614243   -0.22285119229011
C        -3.00970561192043    0.58215815417724    0.85670306555797
N        -2.30928743539126   -0.53750933781621    0.91513428145824
C         1.45638447882916   -3.39694642608571    0.54762148118034
C         2.40313892668461   -4.40138775364295    0.60966694121491
H         2.10687122537276   -8.21360646693941   -0.34499198108613
H         3.25935626916387   -7.08583546292390   -1.12641654718410
H         3.84871079808749   -8.58115166230076   -0.36218787061040
H         0.59504300280133   -6.80603723405880    2.14245683276979
H        -1.14174136588208   -5.02065515487207    2.01858985960131
H        -2.22418523611907   -3.76306656722160    0.04692518073778
H        -4.48985531435522   -2.62358113762806   -0.58078339468825
H        -5.83063464926627   -0.52622302748165   -0.65070415320991
H        -3.76751407604637    3.48906226521205    1.07585200143351
H        -5.92073808803850    5.01240962855968    0.55970645368939
H        -7.75669367623271    3.29899845361273   -0.49804572930327
H        -2.54466492278135    1.47073372704462    1.25592321482108
H         1.68070464118446   -2.44289113534615    0.09573115310874
H         3.40481583606893   -4.25650647548150    0.23830924944467
Cl        0.22080576851089   -0.24687524763342   -0.65425998380704
