77
 energy: -125.229564180852 gnorm: 0.000384345499 xtb: 6.4.1 (afa7bdf)
Ir       -0.72659857966550   -0.87424279626277    1.15905407228432
C        -2.16267930788064    1.45029568375081    3.26161718845247
C        -0.95753473450890    0.72650751123128    2.76425793315257
C        -0.49481693368352   -0.51355130419492    3.35053358524380
C        -1.12179679492326   -1.23622900898013    4.49134453376038
C         0.80746754485705   -0.79636190397297    2.82562810583741
C         1.72348664398000   -1.84341604507729    3.35264637286099
C         1.09399288359891    0.17665455320011    1.82148384707367
C         2.39657043494892    0.34372517437775    1.11402142767802
C         0.00353095209197    1.15199415562308    1.80908996677095
C         0.10451848214140    2.47026466695509    1.09137997696579
C        -1.09450374445842    2.83687942408832    0.20950534155350
C        -0.80470365771090    4.13953435609050   -0.53167217411697
C        -0.52092756955323    5.26716857624032    0.45804815757779
C         0.64858162689717    4.90125617504282    1.36822369256508
C         0.36916032539705    3.59520703801090    2.10661417817920
H        -2.98949633937458    0.76509528572745    3.43791722374103
H        -2.48582621845265    2.22705881884853    2.57760283504456
H        -1.91415499778214    1.91855189700798    4.21506293345199
H        -1.14397886829385   -2.30666723432010    4.29651265346160
H        -0.53402950810130   -1.06743831229034    5.39348551449056
H        -2.13633844476923   -0.89532676060151    4.66917655224809
H         1.16098648804734   -2.70181828601530    3.70876752126441
H         2.43725731442434   -2.16952993298669    2.60176085270861
H         2.27708679760375   -1.42553741732355    4.19431479805978
H         2.99439353961994   -0.55969303514282    1.18488078606797
H         2.24029129974871    0.57787400433173    0.06349870451834
H         2.95150571616595    1.16487951660637    1.56746613248723
H         0.97189150574221    2.41259248817558    0.42724134201524
H        -1.99499878774294    2.97647603795707    0.80742174322207
H        -1.27694753580289    2.03448946763231   -0.50617676912296
H        -1.65928528329447    4.40217073059191   -1.15839910359652
H         0.05773030159007    4.00405126796144   -1.18790070130853
H        -1.41091525125005    5.45051737377004    1.06480959130737
H        -0.29483308513935    6.18771188407183   -0.08346118000004
H         0.82019057482543    5.70100471149694    2.09136395243886
H         1.55449694471610    4.79602214369202    0.76708439057479
H        -0.50020263242096    3.72391039616965    2.75168656230450
H         1.22177059716173    3.33358043107991    2.73579123815231
C        -1.36876322309370   -6.80653191521364    3.75615645080112
O        -0.40056317608193   -6.34304048660800    2.81434695754074
C        -0.40109275115602   -5.04801918236747    2.53131083516347
O        -1.17676364660283   -4.24821902896963    3.00934579343677
C         0.68320607094576   -4.67869836529936    1.57920271249948
C         1.87295103933329   -5.39773015140695    1.58451415389580
C         2.94611952755204   -5.00363103122124    0.78502003364463
O         4.12557898177794   -5.63603328307981    0.71248862411148
C         4.33101657947010   -6.82113263693277    1.46284465400808
C         2.81412895732900   -3.84724791442019   -0.00087749815085
C         1.64458457640597   -3.12648773916947   -0.00191626496488
C         0.55480806180974   -3.53838189158289    0.77095840091686
N        -0.63996237706787   -2.81647119681293    0.69761453344182
C        -1.73305363391399   -3.39209646001232    0.30330278274302
C        -2.90616648069411   -2.57791108627128    0.25093299272563
C        -4.14757369211052   -2.99715815826756   -0.23901981752313
C        -5.19563558273695   -2.10210454412650   -0.27388810445237
C        -4.96082753079275   -0.79521706142694    0.16439305883236
C        -6.06942155786933    0.22331097899218    0.17129831444357
F        -6.73983735466960    0.21876031750239    1.34115352746420
F        -5.61853440567466    1.47477474113084    0.00756951203046
F        -6.97760879215600    0.00338683280607   -0.78609611063067
C        -3.70582089576272   -0.44128682784697    0.63493879502872
N        -2.70484833412643   -1.30968888401853    0.69299689250127
H        -1.33327303097669   -7.89118413408499    3.71215406310261
H        -1.11340779500576   -6.45454973669232    4.75686002188460
H        -2.36102147755375   -6.43849936691335    3.49176624043109
H         1.94451442992062   -6.25577514882983    2.23174628322791
H         3.61455082795489   -7.59634817812255    1.18128991783667
H         4.26738803957973   -6.62498335006248    2.53594461547579
H         5.33790588280627   -7.14912581114805    1.21339411218556
H         3.65123723002238   -3.54452050500219   -0.60864231821348
H         1.53425765703230   -2.25272645661400   -0.62519734717345
H        -1.75208401722953   -4.42947294937891   -0.00780802581176
H        -4.27149781018186   -4.00924545006351   -0.58865499126055
H        -6.16909938616651   -2.38995567364084   -0.63968374631087
H        -3.50490589134390    0.56864094285632    0.96265433963236
Cl       -0.51261671767585   -0.46171494028689   -1.18196117384289
