86
 energy: -121.933543340015 gnorm: 0.000855837154 xtb: 6.4.1 (afa7bdf)
Ir       -0.66406127798200   -0.15682655971159    1.74414569969795
C        -1.80682885144892    1.71617284805034    4.43705322193309
C        -0.74622913802670    0.89863035041718    3.78648950511116
C        -0.63180974194737   -0.53502724694702    3.92850290647565
C         0.65045053939953   -0.92570151359297    3.42358667937740
C         1.30251384371515   -2.24579025307122    3.64019101103607
C         1.24526249197000    0.21689876100196    2.81012761266935
C         0.38871523705665    1.36614962884038    3.07841978032795
C         0.79736774942965    2.76772077775390    2.90245402725363
C         0.84999265378166    3.60684074922793    4.01505377786223
C         1.27929390318960    4.91297878957776    3.88872859867686
C         1.67255322881863    5.41974369911196    2.65143614582612
C         2.14031692577057    6.80765691809379    2.52006115771178
C         3.23891634538928    7.11160584279112    1.71852195515651
C         3.68236598216029    8.41565923545717    1.59694637467685
C         3.03150918992309    9.43848501321018    2.26765420185150
C         1.93665705793361    9.14812161867885    3.06537816729247
C         1.49664505194066    7.84353978993497    3.19409414716853
C         1.61346538658415    4.57840995366605    1.54133370936547
C         1.18249591027715    3.27281597925402    1.66235074996456
C         2.64431011610334    0.30164826090323    2.30518403440742
C        -1.53682023163072   -1.37962678585636    4.76163000547658
H        -1.66573137557436    1.67547217845111    5.51800074446540
H        -2.79737143702738    1.32530165258985    4.21898940008144
H        -1.74953916792541    2.75166283334101    4.11818879488607
H         1.84851356327212   -2.20894592520415    4.58371254620441
H         2.01111820073246   -2.47728776829884    2.84996237736475
H         0.57245669377391   -3.04801532403587    3.70415798406294
H         0.58213625997122    3.22456627595742    4.98823127660813
H         1.33579143278557    5.54276692878321    4.76416006348247
H         3.76138810518045    6.31795260896583    1.20433930369075
H         4.53975863397217    8.63669684852521    0.97747677643287
H         3.37631518182498   10.45735011436154    2.16880733230193
H         1.42404021328876    9.94296473713213    3.58798723005635
H         0.63463060806203    7.62768598618355    3.80828828166007
H         1.89113683978038    4.95949956354230    0.56987047617743
H         1.11486449375558    2.64638382961130    0.78607839262957
H         2.97900529659738   -0.65664675622414    1.91892694534029
H         2.73226617219971    1.05005673748256    1.52332769103849
H         3.30065957001971    0.59259228423633    3.12581294111857
H        -2.56156024317533   -1.02283486486488    4.70800078348418
H        -1.50801039817876   -2.41835242450877    4.44345386891065
H        -1.21576940157209   -1.33619275527491    5.80306480193146
C         3.29599479173354   -5.72543469409708    0.24692536652605
C         2.19598328793611   -4.72783355519360    0.41195864041876
C         2.37746071348962   -3.39597844725236    0.04827164839911
C         1.36441914587385   -2.46969476290089    0.19448352467545
C         0.12348024674640   -2.86688121668832    0.69131581273100
N        -0.91031633596221   -1.93409096458788    0.83902613868569
C        -2.10871075977530   -2.23588303410072    0.47221259213206
C        -3.16201444887071   -1.28525371353914    0.69032817680243
C        -4.48303782229804   -1.62575248869864    0.45283097823509
C        -5.46436227787421   -0.68826026066239    0.75970139621054
C        -5.07977469769882    0.54814744116112    1.20603262048967
C        -3.70709624186694    0.88906464666449    1.34155512516714
N        -3.34659267910624    2.14159287875299    1.69727338785792
C        -2.20619917068572    2.81292302479029    1.09991001912132
C        -2.67017841814075    3.66427908052910   -0.08541189270614
C        -3.71371001558889    4.68633449526643    0.35736985730751
C        -4.87062851837815    3.97252861788204    1.05332626436462
C        -4.31320492000575    3.11108281808630    2.18796634075908
N        -2.76799399711656   -0.07057665422653    1.15868635643307
C        -0.07084306460051   -4.20119965495071    1.05538650168093
C         0.95760079992101   -5.11121175081863    0.92132387368263
H         3.20144123678340   -6.21797103242126   -0.72130969749616
H         3.24651143677763   -6.49179254974614    1.01648043516809
H         4.26968542175040   -5.24366802551280    0.28317195360381
H         3.32835935091826   -3.07999136893021   -0.35415368124368
H         1.50856615161365   -1.44342662922642   -0.10275290504820
H        -2.33133528420834   -3.18201829364282   -0.00939616160585
H        -4.73139913998210   -2.59695355942420    0.06130539219698
H        -6.50879791475978   -0.92116482034433    0.62604158765525
H        -5.83219759137904    1.29037016368014    1.40356785910932
H        -1.47984345717023    2.08237473012150    0.75493926668181
H        -1.73788043782562    3.45407228601659    1.84940694605819
H        -1.80390323657372    4.16638959732968   -0.51600500129688
H        -3.09334406545151    3.01061623180530   -0.85127710351150
H        -4.07925435140879    5.24640894490254   -0.50455653088750
H        -3.25587622844040    5.39881437633793    1.04702336331148
H        -5.57918375507406    4.69673845266260    1.45636785122881
H        -5.39661064217030    3.34668184877215    0.32987890517552
H        -5.10397387498977    2.61395284425930    2.74787865593530
H        -3.77370966745356    3.76045910591026    2.88356357151146
H        -1.01731582716031   -4.51038822076954    1.47293986904539
H         0.79973161651593   -6.13723180921847    1.21760793610995
Cl       -0.04904397223460    0.58898930459032   -0.47256272196050
