63
 energy: -85.216024664786 gnorm: 0.000936096641 xtb: 6.4.1 (afa7bdf)
Ir       -0.43266985181166   -1.05747124505343    1.06321701828377
C        -2.12739040977274    0.83367087309457    3.38917166497042
C        -0.86682331697289    0.19825707359893    2.91078127233422
C        -0.41875903179495   -1.11664488248557    3.29755044502761
C        -1.12635380894231   -2.01033951228801    4.25983353993108
C         0.94667574726684   -1.26286983074261    2.86244837507395
C         1.88766467377174   -2.33027836589589    3.30760669285305
C         1.28944609378854   -0.10855321440233    2.10569881510566
C         2.63962203674370    0.25133054237688    1.58585136845285
C         0.15854512192029    0.80388412062291    2.13949654642596
C         0.21162264894534    2.20873805019314    1.64133361976630
H        -1.99004080949275    1.13648468826826    4.42813441995257
H        -2.96363118634686    0.13943527522359    3.35405169065380
H        -2.37195112552530    1.72135806472884    2.81248190849483
H        -2.20404696846532   -1.92689804190184    4.15171536215657
H        -0.84113249732792   -3.04908266649737    4.11925105758431
H        -0.86463578773405   -1.72128069408670    5.27851083700976
H         1.36241811954909   -3.24696300827806    3.56108410573130
H         2.64389652231152   -2.53913479065337    2.55540873208377
H         2.40046010149405   -1.98212429019902    4.20559136447122
H         2.56143541319054    0.72209719120796    0.60825302748801
H         3.28072467980659   -0.62163654449063    1.50623900003624
H         3.10879471389169    0.96352987141760    2.26547184673587
H        -0.76808131314090    2.67866433657312    1.66042395682058
H         0.58963941242191    2.23752384117568    0.62058163836048
H         0.88923175739573    2.78996734562731    2.26828210989604
C         5.09918952220187   -2.92069887410180   -3.84518788976626
C         4.07161895299662   -3.49635220336980   -2.87652506099406
C         2.75683156135099   -2.71914553891112   -2.92520650601036
C         1.64726362258829   -3.33055534213719   -2.06812007719035
C         1.92866685410441   -3.22402495152044   -0.57154795948807
C         0.77695480856714   -3.79261247466109    0.27150077725232
N        -0.37282458582798   -2.92368765277998    0.23629637858682
C        -1.39668513896992   -3.26913042216355   -0.46362351011001
C        -2.50720309409066   -2.35633546198392   -0.50967157689439
C        -3.65063253325652   -2.55688378827081   -1.26257422611548
C        -4.66132549735978   -1.58632818773515   -1.25967647658330
O        -5.73832466120293   -1.83525234603825   -1.99752385623917
C        -6.79603019722721   -0.88741341688300   -2.03782352858209
C        -4.44574944602226   -0.43741522802089   -0.48281335702586
C        -3.27450852322678   -0.31618347701725    0.23434112578471
N        -2.32412093666356   -1.24584250513873    0.24852752020435
H         4.73233790791930   -2.96979362457641   -4.86850506016782
H         5.30630363523976   -1.87920570311498   -3.60812393234254
H         6.03257956894935   -3.47702288950006   -3.79012164117918
H         4.48716475380616   -3.46828480271187   -1.86810387794745
H         3.88388544997487   -4.54168302952429   -3.13339935452253
H         2.92881510859120   -1.68899438787710   -2.60687934687071
H         2.41288210067861   -2.68540672039065   -3.96187931464973
H         1.51705511333607   -4.37872425597955   -2.34724899420374
H         0.71993067070036   -2.79808245293020   -2.28902284613834
H         2.83140800213852   -3.78003599469527   -0.32202405425294
H         2.07808865815241   -2.17447324768573   -0.31378456983068
H         0.51004756188041   -4.78449637164466   -0.10641100699253
H         1.10286616343089   -3.88306311075947    1.30803569422463
H        -1.43484166836940   -4.20689109836490   -1.00769645813829
H        -3.76976410752912   -3.44346243708706   -1.86254666204399
H        -6.45386094055648    0.06539403845445   -2.44739348576636
H        -7.22621460076141   -0.73774561407346   -1.04539578413726
H        -7.54467030470632   -1.31930537612138   -2.69809165222677
H        -5.17153522906415    0.35658939741327   -0.43621274385950
H        -3.09398823475622    0.56908003633757    0.82437329480225
Cl        0.09251974789258   -0.15774567160797   -1.08752639623686
