74
 energy: -107.152611665154 gnorm: 0.000423487380 xtb: 6.4.1 (afa7bdf)
Ir        0.50592832997359   -0.29922541556746    1.74973505290728
C        -1.27755944548552    1.06093581760945    4.25902323990198
C         0.05299766798049    0.66587374750698    3.71877924122190
C         0.71430915886034   -0.56619120482116    4.00507029418040
C         2.03000897765772   -0.51230167491280    3.41322624532091
C         3.17012744312262   -1.43356590393198    3.69855238052635
C         2.19096436473773    0.77813058120043    2.81059263650682
C         0.95364201040348    1.49352125328544    2.95265111893587
C         0.76160379940225    2.91278765655636    2.62741194046517
C         0.38098867410150    3.81068317397390    3.62397967651657
C         0.24487089982818    5.15449983436584    3.33904599422413
C         0.47435913633978    5.64259874277095    2.05294101076153
C         0.33784006469553    7.07587615029183    1.75550153256369
C         1.23836811507749    7.71043519221484    0.90136742177485
C         1.11582136762189    9.05945822048203    0.62446527527289
C         0.08932026329945    9.79705287605449    1.19172477275649
C        -0.81254957465701    9.17658649571542    2.04099025149667
C        -0.68805097977610    7.82884909995750    2.32391682496577
C         0.84830383772742    4.73888634048185    1.05870033721776
C         0.99657435317046    3.39549528214789    1.33997071353859
C         3.46671118832373    1.32435758026400    2.27849176180159
C         0.19724597690377   -1.57782123555813    4.96958595317983
H        -1.17609471169181    1.29986769315831    5.31858159734217
H        -1.99207785443810    0.24517402597532    4.17586265775470
H        -1.66917483858636    1.93560490545028    3.74719525109710
H         3.72606568439590   -1.04431070973314    4.55301955896499
H         3.85073411082586   -1.48702239131237    2.85297379529410
H         2.83077862867523   -2.43386437098910    3.94766820777484
H         0.22723905010703    3.45962142711539    4.63242432341585
H        -0.01908170676176    5.84057229285075    4.12963569710313
H         2.05385700890807    7.14899861693552    0.46907368711483
H         1.82513926052106    9.53899770331981   -0.03450659092395
H        -0.00639798416288   10.85061809333554    0.97372602489383
H        -1.61684117591932    9.74650421157004    2.48333252869736
H        -1.40670343181498    7.35279974541696    2.97471137801989
H         1.01325902684840    5.09142584993799    0.05180447240915
H         1.27851966352250    2.70718870446338    0.55672424422084
H         3.75573491914292    0.82161476250556    1.35645108193311
H         3.36965561212234    2.38695228103235    2.07156016251255
H         4.25980843741558    1.16888784996370    3.00864660042441
H        -0.80806206934204   -1.89974222944020    4.70927952440580
H         0.84316393932590   -2.44677998491976    5.02911672377069
H         0.15106112450257   -1.12023394432253    5.95848816387239
Br       -3.52634406871847    3.45471692317944   -0.25846793253518
C        -2.83188676518607    1.68562923422241   -0.18993344434114
C        -3.39549281353176    0.66844004416054   -0.95874797349482
C        -2.84286219559762   -0.59198447117723   -0.86776171316348
C        -1.75876427627620   -0.80440581148879   -0.01235259972457
C        -1.07284436741149   -2.05662471276033    0.11769756465199
N        -0.05443636055966   -2.13670692696045    0.90386525680471
C         0.64235844593802   -3.40313644272836    0.96085523675091
C         2.13072585241242   -3.22455616448538    0.61938202019931
C         2.97882373406720   -4.35396395161231    1.21482397163064
C         2.17650254461195   -5.64920047246901    1.29321987282810
C         1.00652581123020   -5.49708746135317    2.27605856592393
C         0.50451258743881   -4.04904007725907    2.34185537568086
N        -1.23858648772941    0.19410711891088    0.73742303972673
C        -1.75712248125587    1.41092241557737    0.64422070037455
H        -4.23156151295940    0.86977131550296   -1.60967035105779
H        -3.23117949595266   -1.40887115501847   -1.45459112389032
H        -1.40544141325403   -2.90420363245048   -0.47333701067208
H         0.18555549798624   -4.07971410053525    0.22875730411384
H         2.46822368364115   -2.25812090361844    0.99636201607853
H         2.23662968475521   -3.20272904926050   -0.46541120360227
H         3.86449144595616   -4.50091375705394    0.59628559825816
H         3.32117203073404   -4.09239609373910    2.21580216544558
H         2.82157616138220   -6.46852885750917    1.61203426846587
H         1.80671607888320   -5.90000846992999    0.29744041997086
H         1.31971085088284   -5.80404232684265    3.27455696338446
H         0.19409001658294   -6.15895704154566    1.97327998054484
H         1.09131966358174   -3.47392596941698    3.05227846842839
H        -0.53730299641002   -4.02858214491778    2.66078746041730
H        -1.30751345649542    2.19993288438641    1.23009453165507
Cl        1.52039827833856    0.09979491565556   -0.36722619494150
