88
 energy: -131.510264924691 gnorm: 0.000281726263 xtb: 6.4.1 (afa7bdf)
Ir       -0.80272750085380   -0.71163267258194    1.52434750049970
C        -1.91483000282987    1.57490419561273    3.90499086446474
C        -0.91657830253694    0.58585732162118    3.40907618887233
C        -1.01061731592166   -0.82752031295557    3.73191196724084
C        -2.09637845665375   -1.43697113114028    4.55460237464365
C         0.23903309364988   -1.43834841182679    3.41545784419832
C         0.67480655105368   -2.80245183141103    3.81823736232194
C         1.03169309446621   -0.46402895255774    2.73268163513391
C         2.45671636370103   -0.64058303884916    2.32809549274917
C         0.33847119520309    0.81694423377438    2.79613419100377
C         1.02266935505674    2.12430900547992    2.50760446664474
C         0.28800548883612    3.02477582229446    1.51217239362321
C         1.10375791730099    4.28417043240677    1.23896180646976
C         1.37331163831353    5.04157288956536    2.53656136631571
C         2.09128956493885    4.14354641860487    3.54083067083685
C         1.27244794699568    2.88642885273390    3.81909184465183
H        -2.92329666127920    1.17670869137217    3.83088173468819
H        -1.86642920493161    2.51261753556908    3.36321126359631
H        -1.71267315938043    1.76866637932544    4.95974721111064
H        -2.10620480122558   -2.51831076255088    4.45179815401249
H        -1.93030968363967   -1.19624721394000    5.60512868127585
H        -3.07175615752318   -1.04944862552750    4.27164460123202
H        -0.16709427475946   -3.48396717396656    3.89871974941743
H         1.39593192643802   -3.21531960358102    3.11837533792673
H         1.15142378785986   -2.73552126820516    4.79705335498966
H         2.69263918130919   -1.69161107948804    2.18666131429604
H         2.66188398564230   -0.10748698131326    1.40249444635215
H         3.10973622404298   -0.24156382523897    3.10490981842801
H         1.99845953339308    1.89695916367986    2.06812720819174
H        -0.68671486478532    3.31577456488060    1.90340262303127
H         0.12902937903257    2.47805412641108    0.58271619914025
H         0.56278818483222    4.92288245280295    0.53716609158692
H         2.05352953527842    4.01343149056166    0.77203390218382
H         0.42517562621547    5.37864159223540    2.96269692605519
H         1.97920703644599    5.92667298040567    2.33148179359195
H         2.25610513269951    4.68707515782640    4.47340901024320
H         3.06887314160504    3.86485740582432    3.14079071500785
H         0.32140929868021    3.17165423921878    4.26825306129033
H         1.80351470872736    2.24485429806906    4.52519079318219
C        -2.68496221889496    8.03241147852903    0.58718425922407
O        -2.94255799804200    6.64719417707880    0.79800812849635
C        -2.39053149121956    5.79102423129434   -0.06639117856300
O        -1.68336252865301    6.13784480472768   -0.98729255078876
C        -2.73395051919027    4.37755086443960    0.23025320415963
C        -3.56951380359271    4.02745583779543    1.28997280936000
C        -3.87655664146332    2.70027889391505    1.51636689477935
C        -3.33213401019540    1.70005471382576    0.70989091842815
C        -3.75494886900656    0.29480188725223    0.83658729186244
C        -5.12660118935486    0.02886547404824    0.79668279889892
C        -5.58177891999370   -1.27433738603573    0.69333400058826
C        -4.64764395801989   -2.28970050894555    0.59533402207721
C        -3.29549475393952   -1.97007700709996    0.70025671869688
C        -2.26092715025353   -2.95556144730964    0.59765675756320
N        -1.03497974704736   -2.58396104583650    0.79452946926139
C         0.00083679151486   -3.51012603740761    0.69603447331573
C        -0.14885302829472   -4.81680763546852    1.15773899517665
C         0.89578484119526   -5.71626770793007    1.04664945657879
C         2.09744811159140   -5.35000500348147    0.45091578227553
O         3.16113825727014   -6.15513887529776    0.28175557286963
C         3.07488953073593   -7.50763635518628    0.68887047226876
C         2.25185911617460   -4.01776251824347   -0.02691551522304
O         3.43985876167467   -3.74409170763765   -0.60982834917095
C         3.62746678553151   -2.46919452735400   -1.19323127093251
C         1.21837729958495   -3.11609476381996    0.12416373067311
N        -2.85568977230255   -0.69627023599900    0.86904473773554
C        -2.50604842738724    2.05415856254929   -0.35504381994448
C        -2.21331061676884    3.38239757095102   -0.59309273154821
H        -3.20683314051702    8.37962136507188   -0.30657396547460
H        -3.05529838257765    8.54516981206371    1.47045892165918
H        -1.61472734946237    8.20242523089144    0.45737322032342
H        -3.98027148239108    4.79938258748163    1.92081143040906
H        -4.53632069527362    2.43924560412520    2.32980242064756
H        -5.81643541865703    0.85708502041945    0.81045787447978
H        -6.63838988149709   -1.48743238119052    0.65832615972257
H        -4.94299098268906   -3.31635976120431    0.45557826453303
H        -2.50703035450166   -3.96800304267371    0.30096051620174
H        -1.06115970349194   -5.12469827283880    1.64296129333894
H         0.76301588777686   -6.71499813749402    1.42802471235407
H         2.92593041922289   -7.58795765562196    1.76906423695986
H         2.27193238752754   -8.02993218819917    0.16213817222724
H         4.03192844832101   -7.95096862183230    0.42167254436814
H         3.60732793055366   -1.67989387061052   -0.43802994128795
H         4.61116945545679   -2.50436581451938   -1.65670403321508
H         2.86996170477140   -2.26468941698784   -1.95422401844646
H         1.30186753775407   -2.10743353239369   -0.24351820640443
H        -2.11463346663215    1.29108617821461   -1.00722288870349
H        -1.58078481167446    3.66951596177391   -1.41883260017241
Cl        0.02873554104141   -0.02889316307618   -0.59397115214700
