78
 energy: -121.549337532168 gnorm: 0.000420556192 xtb: 6.4.1 (afa7bdf)
Ir       -0.61691542726021   -0.84436328750447    1.27319008770728
C        -1.91438225799800    0.89302323203711    3.92911398946063
C        -0.74289549140740    0.23755242399837    3.28245956029500
C        -0.36981599689445   -1.13765302237683    3.46414476228923
C         0.92380102548104   -1.32854857256255    2.85906564186243
C         1.81085039578053   -2.50691017331469    3.06059090203360
C         1.29123353317715   -0.12033876372516    2.20732041672001
C         0.25075137960147    0.86324058454599    2.46897534226161
C         0.39642288649730    2.30814099462184    2.23106998326994
C         0.36104935009541    3.18312995721689    3.31625902967442
C         0.56187911452522    4.53609037181940    3.13082920631762
C         0.80343720159664    5.05678251888168    1.86039490225656
C         1.03937272242227    6.49586539869393    1.67036239524016
C         2.03247209633566    6.93980461919937    0.79932039569360
C         2.26528626060992    8.29211203781770    0.62833289078075
C         1.50560943545285    9.22300229685415    1.31827463781034
C         0.51273401966360    8.79277841365032    2.18352062443493
C         0.28342301169783    7.44073937071538    2.36155931624705
C         0.82600065762110    4.17919685724136    0.77738115921687
C         0.62661935087324    2.82477942688390    0.95712105686550
C         2.62411445223352    0.16606221085353    1.60786346744861
C        -1.04887820352803   -2.10167168310895    4.37697729496285
H        -1.72322036447054    0.97933262191982    4.99932695583716
H        -2.81864655198642    0.30116440787601    3.80400018187640
H        -2.08256464051559    1.88622022096245    3.52345469225725
H         2.38644352495452   -2.35334829673140    3.97406617488615
H         2.50783742150479   -2.61913173085281    2.23531233788006
H         1.24085569551370   -3.42493679567816    3.17323045756149
H         0.20883156424958    2.79630878564929    4.31189353049510
H         0.55899763349747    5.19608980934207    3.98517891439222
H         2.63997579843723    6.22037666255467    0.26965313888462
H         3.04358964187126    8.62277690405467   -0.04427031747308
H         1.68708055935887   10.27911879710736    1.18234686206227
H        -0.08407694655737    9.51528416106442    2.72137085873767
H        -0.50090291546809    7.11455474016799    3.02887572669097
H         0.98659488521342    4.56491964535631   -0.21812838077674
H         0.62580728915699    2.16268220204898    0.10388183647102
H         2.92982602872781   -0.62558852016599    0.92777097187671
H         2.60997178652100    1.10753206881149    1.06720306692942
H         3.36487063832646    0.23256760302065    2.40548478976614
H        -2.11264976896181   -1.89273102413387    4.44630059847318
H        -0.91294898381372   -3.12673482205927    4.04136669262014
H        -0.61872768603748   -2.01497890361988    5.37538523412973
C         4.56890496363939   -4.69115761531192   -1.01990389542870
O         3.48312110204153   -3.80103018267781   -0.82768639478570
C         2.36403031999372   -4.24961879981325   -0.22766897075260
C         2.18648734826885   -5.53647687418702    0.28438139290885
C         0.99431984126173   -5.88053113307152    0.89929265075911
C        -0.02902770686714   -4.96118742667202    0.98534027735484
F        -1.17960322715047   -5.30089864413385    1.61605717285765
C         0.11707859737516   -3.66598999021551    0.47517370263183
N        -0.90939373321834   -2.71792245692359    0.55534666982580
C        -2.11811290048636   -3.03010744613812    0.21648836791346
C        -3.09774960593430   -1.98801116045652    0.27456917533740
C        -4.44415510848606   -2.18742955939965   -0.08823689779383
C        -5.30384442038402   -1.12634094882193   -0.05834477108158
C        -4.80899901633232    0.15597010877303    0.26217004703659
C        -5.62607309631537    1.30345727305978    0.24345926204734
C        -5.09963356908444    2.54062389982605    0.50045608937043
C        -3.72924979061181    2.67855633239494    0.77332453653046
C        -2.91231665186813    1.58168746762944    0.82795923206624
C        -3.42718010854795    0.29209760099808    0.59529754219790
N        -2.61931356903203   -0.79512559849641    0.65920209291501
C         1.32552352458847   -3.32202483931887   -0.11427310914470
H         5.32856744909520   -4.11022162386808   -1.53840397665484
H         4.27760576710090   -5.54326020257763   -1.63860719891778
H         4.96710533474274   -5.04293557627691   -0.06489303471901
H         2.96647768331650   -6.27561527260032    0.21523963095799
H         0.85117621918555   -6.86666325419885    1.31088204513683
H        -2.37967414163267   -4.01263607597525   -0.15930655758007
H        -4.76853773127831   -3.17499114738295   -0.37190082992084
H        -6.34860675829399   -1.24628321835726   -0.30015405760846
H        -6.67212818166276    1.18594861586296    0.00574582155813
H        -5.72888714426123    3.41633772676795    0.47762834384860
H        -3.31627411077223    3.66152482206001    0.93626155009442
H        -1.85422778678439    1.69389704256950    1.00112061535686
H         1.45146034826906   -2.33293128444568   -0.52605794701814
Cl       -0.12379526597619   -0.16134230775108   -0.95844796372853
