73
 energy: -111.813888741147 gnorm: 0.000991536088 xtb: 6.4.1 (afa7bdf)
Ir       -0.24747518187513   -0.81947716217331    1.60713550798371
C        -2.08365669761157    0.69944876509722    4.04975203462208
C        -0.75895693823184    0.21220987427545    3.57530153390614
C        -0.21756643379119   -1.09010706014727    3.83122020791515
C        -0.86045170035719   -2.13048069138894    4.68395687292251
C         1.14949089595334   -1.09927570376644    3.37096228793505
C         2.18075662013161   -2.12048920932317    3.71323217294191
C         1.41361656656635    0.14940480113365    2.74449737171483
C         2.75079767734792    0.62421777932446    2.29507798825907
C         0.21554816625133    0.96676462112880    2.85585382812639
C         0.17052323827117    2.41480521740504    2.59316124503458
C        -0.08073221010813    3.28566266938732    3.65276715900429
C        -0.06669276775677    4.64774917215705    3.42104019745401
F        -0.30805160137974    5.48276686510943    4.45370540103556
C         0.18496424539539    5.18943572891497    2.17306659079212
C         0.42637690335325    4.29827425724577    1.14195849333288
F         0.67053484311608    4.79092841838549   -0.09018537892460
C         0.42314889416754    2.92839621113475    1.32371130184199
H        -2.32211315737301    1.66611887099072    3.61454282701085
H        -2.05426585889373    0.80829274762863    5.13422127798041
H        -2.87561913120295   -0.00806284061384    3.81369365584583
H        -0.53693805440265   -3.12908759563545    4.40433673289481
H        -0.58025974246269   -1.96307233096923    5.72451983240942
H        -1.94284540090875   -2.07849801100864    4.61222107655192
H         2.74903376020249   -1.76023143932855    4.57191382614173
H         1.72922142745325   -3.06955405837130    3.98633278541820
H         2.88037076207117   -2.27021943159327    2.89533476499574
H         3.29071493045167   -0.15825200371857    1.76812424141336
H         2.66124724339944    1.48611384494435    1.64117992901719
H         3.33836710140147    0.91068684074876    3.16819726088748
H        -0.26020311261218    2.91793930374499    4.64982479329095
H         0.19509319008965    6.25443045306643    2.01189280635834
H         0.59630996461326    2.27286940644110    0.48421508237427
C         4.55748293232798   -1.12330787125806   -0.99340633050832
C         5.01830080696264   -2.35221718991283   -0.21334445436822
C         4.34966295708882   -3.65941073182877   -0.66403427958553
C         3.14480975825580   -4.08340655303784    0.18003699939641
C         1.96760632178486   -3.11990508748265    0.06710592804113
C         0.74149673608977   -3.63855566174225    0.83213753049803
N        -0.32767011074456   -2.67496376475670    0.76782938059862
C        -1.34873836858282   -2.90923832150156    0.01653214431465
C        -2.35569453798312   -1.89499803325658   -0.06772122785165
C        -3.50357249641479   -1.96814203596603   -0.86110285680231
C        -4.38376166041647   -0.91186936809058   -0.86932517450718
C        -4.10802007991590    0.22108988144064   -0.08420950043429
C        -5.01307077307117    1.33900395767056   -0.05975298184470
C        -4.99867733956108    2.52592728655726    0.64483516859180
C        -6.15675667623266    3.22758986433375    0.26374223150887
C        -6.79803222250662    2.42877986826900   -0.64176294438094
O        -6.12140278682416    1.29605597517371   -0.83948620417358
C        -2.93073142530564    0.22061099787759    0.67380217088900
N        -2.09184992920001   -0.80161211193568    0.69068219058685
H         4.77903874350846   -1.24620435952330   -2.05176866504053
H         5.08487831035495   -0.23765853793873   -0.64354983289276
H         3.49020615327022   -0.94953062534152   -0.89203359740497
H         6.09862034792010   -2.44463913382959   -0.34694529914493
H         4.84414164992067   -2.20158370791955    0.85432663119196
H         5.08368141328571   -4.46636768635460   -0.61156305596790
H         4.04638118432271   -3.56641486008111   -1.70841894914285
H         2.82835315912662   -5.07416749617130   -0.15358849886913
H         3.45431016054044   -4.17228230340270    1.22353477007083
H         2.23858643057426   -2.14222138088687    0.46401341821757
H         1.70077829160905   -2.98800353447240   -0.98220668811156
H         1.01044536869298   -3.79435757583850    1.87796455374335
H         0.41675232646497   -4.59089985155883    0.40245819992992
H        -1.44905610744427   -3.83279342202475   -0.54322506267427
H        -3.68064403629829   -2.84581488696932   -1.46136647160078
H        -5.27802750151293   -0.93506763651754   -1.47100289289097
H        -4.26198979725884    2.85452936555146    1.34707804624063
H        -6.47297406546996    4.18957284871953    0.60975921125954
H        -7.71044789333121    2.56118802974261   -1.18889523509331
H        -2.66987403420419    1.07861131496954    1.27336069460550
Cl        0.48639734889551   -0.05560297096456   -0.53058777487936
