54
 energy: -77.326433251085 gnorm: 0.000508597035 xtb: 6.4.1 (afa7bdf)
Ir       -0.75169201946270   -1.40174195999231    1.34231541240245
C        -2.33039772397335    0.70298724862049    3.57186225605932
C        -1.13098488965681   -0.07512442732554    3.15413557978788
C        -0.84434663096450   -1.42864748144301    3.57378104460278
C        -1.68114028955877   -2.23237035113637    4.50967370042470
C         0.51175914155485   -1.72819689892086    3.19973734171527
C         1.30204029635929   -2.89295731008985    3.68675677074240
C         1.01096867368545   -0.62493439610488    2.44471984930265
C         2.41560964426881   -0.40687900444493    1.99554836161020
C        -0.00979708627880    0.41114665605884    2.43788805528624
C         0.21969966100185    1.79545084912333    1.93876556043379
H        -2.16279956102263    1.08257750961126    4.58086884639785
H        -3.22125004127072    0.08053853650487    3.59779994578057
H        -2.50167527848146    1.55728593889601    2.92211204910184
H        -2.73860853272124   -2.02945353204030    4.36716523319870
H        -1.50804296276805   -3.29687114762224    4.37982952665408
H        -1.42178679617909   -1.96961804898369    5.53611457681101
H         0.67370074184538   -3.76516398743381    3.84512605480896
H         2.11027692919426   -3.14045649743083    3.00462329084762
H         1.74589732175662   -2.62634340419081    4.64693856380671
H         2.43965814253747    0.01734239137104    0.99382081646585
H         2.98722446417674   -1.33006591703503    2.00073632615998
H         2.89861483642541    0.30210822377828    2.66858789444463
H        -0.69777005093259    2.37566095882826    1.92559754894868
H         0.63338267061179    1.77549212747818    0.93267490750391
H         0.93916166716231    2.29599246502162    2.58684736447424
C         5.18216385525192   -3.76030051151220   -0.27345063601311
C         3.99550823748585   -3.92400728537932   -0.82809478603732
C         2.80363773993316   -4.49999620029906   -0.12759157289749
C         1.59749089060347   -3.56342052725848   -0.22943239133525
C         0.38226291296010   -4.15143543508215    0.50101764378238
N        -0.73010380758281   -3.23669684094652    0.45973200762982
C        -1.73099224509605   -3.50470358934993   -0.30939342256327
C        -2.80329360811921   -2.55601914808637   -0.36140260526213
C        -3.91963034817090   -2.66570709047865   -1.19449935439876
C        -4.87676056763372   -1.67319806724551   -1.17911677392512
C        -4.67960486287347   -0.58888637655230   -0.32509562092951
Br       -5.95758900232452    0.82001597791204   -0.23004722850720
C        -3.54831094179194   -0.53454900318765    0.47636048817241
N        -2.63432043016566   -1.49587335096311    0.46769750468056
H         6.01564444434014   -3.35276705667513   -0.81960818848840
H         5.37586683191390   -4.03617247667497    0.75058081083521
H         3.83331839009633   -3.64005151213910   -1.85960163305506
H         2.55327993396121   -5.45684070808102   -0.59412033022147
H         3.05046272475399   -4.69067447382606    0.91811983276391
H         1.34141397418492   -3.40320912840438   -1.27745495489289
H         1.84384671347540   -2.59125206050329    0.19785641449965
H         0.64473522115057   -4.33233612042853    1.54448145089780
H         0.10463351691971   -5.10245887617470    0.03592062593338
H        -1.77032822895472   -4.40897892565477   -0.90731018329933
H        -4.01795059436431   -3.51755890211378   -1.84805420498487
H        -5.75014117736982   -1.72533082446713   -1.80957620258101
H        -3.38724010784715    0.30482712612444    1.13511093382657
Cl       -0.13812779205085   -0.50250015364764   -0.78552950139877
