74
 energy: -111.367588127435 gnorm: 0.000495115461 xtb: 6.4.1 (afa7bdf)
Ir        0.08846556210795   -0.34821111687586    1.89542477164362
C        -2.05806576823677    1.60820934039815    3.80556574139665
C        -0.74389524115224    0.94160502700051    3.60995786397407
C        -0.44420348114306   -0.39371578737941    4.06645202100753
C         0.97364087432049   -0.57464898362181    4.00927882247508
C         1.70184160737901   -1.63316118783949    4.76277052305324
C         1.53163985317943    0.55622918445884    3.32481230166746
C         0.45574039925570    1.52234724728157    3.12123413643295
C         0.64922859563295    2.93963985596051    2.77985307280890
C         0.26347950287608    3.90876338956266    3.70591819360331
C         0.47133581487068    5.24764183628219    3.44537099152816
C         1.06524354847883    5.66158314833366    2.25417123720691
C         1.29033122665359    7.08935464596965    1.98407247385505
C         2.48024061283046    7.52258403297328    1.40250206637135
C         2.69575134603123    8.86655570461952    1.15854999981363
C         1.72422979216819    9.79896870829445    1.48440578809968
C         0.53536246615670    9.37877171809587    2.05813091791062
C         0.32099577788579    8.03605395364729    2.30975808612228
C         1.44480313137084    4.68888802795010    1.33107207897552
C         1.24324022761336    3.34782416396043    1.58898237352976
C         2.97946877767255    0.88699831644857    3.20221199455064
C        -1.39465905645951   -1.27982969244647    4.79720947391314
H        -2.21924769474757    1.73773597628352    4.87696382169842
H        -2.87930066804369    1.00241315568821    3.42749756135602
H        -2.08117710351164    2.58344933583668    3.32917757430113
H         2.77412857486111   -1.57518782703771    4.60586714635988
H         1.34679339431388   -2.63154235517378    4.51751725754891
H         1.50793219385432   -1.47244564096459    5.82464261760484
H        -0.17259255612278    3.60996271131306    4.64665156594242
H         0.18894167101315    5.98310523654846    4.18348865612353
H         3.25003769927251    6.80423842090116    1.16028729966519
H         3.62643633580930    9.19000504968798    0.71457720108754
H         1.89285186294083   10.84840540802564    1.29149234271130
H        -0.22757655902181   10.10156195923184    2.30894276766458
H        -0.61533523105219    7.71500927914755    2.74236925933039
H         1.88664066131695    4.98869911277446    0.39273084910150
H         1.51821205942219    2.61328272016492    0.84857989312414
H         3.59159209235633   -0.00771302250306    3.14396092590536
H         3.16137551549743    1.49805320500884    2.32290653283546
H         3.28220213806398    1.46252103131883    4.07803756445038
H        -2.40755349164060   -1.16708791278235    4.42059710807120
H        -1.09848343615622   -2.32214205014549    4.71905318487468
H        -1.39742675565789   -1.00830459739833    5.85363241864581
F        -3.50064626134114   -3.71970961777038    0.18493256503965
C        -3.27105689275642   -2.40947850273763    0.29337335163895
C        -4.24890205133328   -1.49259142788417   -0.05464283770122
C        -3.92630893722744   -0.14626301765352    0.01186947030244
C        -2.66739914969227    0.22582038075404    0.47354642745983
Br       -2.17867555425912    2.04918189982616    0.45965323281227
N        -1.76293622711692   -0.65547899543756    0.88698306159780
C        -2.02081499023152   -1.97712960802123    0.74695663154485
C        -0.87659041158209   -2.82476595416616    0.91575673627618
N         0.25603838392832   -2.27349218168520    1.20157427933434
C         1.45330638392576   -3.05373852288795    0.93925914391081
C         2.71627176869191   -2.38761578140288    1.47203492320473
C         3.95281902721715   -3.21511472861190    1.12192703746231
C         4.07862486517146   -3.38529489872501   -0.38740811549430
C         2.81718956825478   -4.03943442759625   -0.93889830633480
C         1.58526929838658   -3.21133792407162   -0.59076390964813
H        -5.21573906386836   -1.82800973837993   -0.39572990399827
H        -4.63010803000665    0.61167420057570   -0.29231429333668
H        -0.96276647918003   -3.87853454241523    0.66970780376485
H         1.33554487273670   -4.04881020909505    1.38759350527717
H         2.65039677878658   -2.28958805976249    2.55091147562887
H         2.80208758100949   -1.39596539895314    1.02513001982802
H         3.88327527874763   -4.19789698544569    1.59355813052341
H         4.84168009374098   -2.71958285468290    1.51369143570146
H         4.21621928894038   -2.40881092149316   -0.85545189168483
H         4.95029596918104   -3.99708722103816   -0.62430206338937
H         2.71516972715749   -5.04524157785775   -0.52483032302689
H         2.88596565778583   -4.13010461775656   -2.02411463947969
H         1.67159914221941   -2.21657594352175   -1.03012943385670
H         0.69074272423787   -3.68661942904212   -0.99668990851499
Cl        0.95406436619028    0.33650687801122   -0.21792308315604
