80
 energy: -129.060251729506 gnorm: 0.000258784421 xtb: 6.4.1 (afa7bdf)
Ir        0.15231263851359   -0.64360588107981    1.71275960477739
C        -1.25550377891420    0.66183633032418    4.49168192526830
C        -0.02442695448194    0.26767493728704    3.75157343719426
C         0.65416822627953   -0.98062196343276    3.89868770638999
C         1.86027451844688   -0.92766774569648    3.10993797240968
C         2.95207368696210   -1.94485709057133    3.10900847555303
C         1.97041107611771    0.39061519999605    2.55513977450317
C         0.77569224868949    1.11384719390583    2.89408372780187
C         0.54600145063538    2.53795850554185    2.61331580564791
C         0.28175513146323    3.43265019898548    3.64955199543377
C         0.11407678862989    4.77756953004610    3.38478117757615
C         0.20261863185264    5.26950863144715    2.08314075232092
C         0.05209337697619    6.70613616939138    1.80910425546446
C         0.88919589404620    7.34036848803246    0.89302942814256
C         0.75991804080198    8.69404931273339    0.64243122363588
C        -0.21117792520816    9.43426843092032    1.29718013975367
C        -1.05117201589306    8.81264711393194    2.20700220682431
C        -0.91886813063780    7.46055590188453    2.46464314597492
C         0.45451859028025    4.36830113950882    1.04872254750215
C         0.62706323236860    3.02320172909526    1.30745349267604
C         3.16806293108426    0.94208288257737    1.87084157936794
C         0.28035373394679   -2.03483811351821    4.88099254935372
H        -0.99305068520514    0.88379660905459    5.52683305505132
H        -1.98076611794999   -0.14814260551371    4.50380466238605
H        -1.71059474997967    1.54605173988140    4.05519745851589
H         3.59668450513823   -1.78514165376006    3.97384458883185
H         3.55450368861631   -1.85538327895213    2.20951242678670
H         2.54944847570374   -2.95314416755730    3.15935194541307
H         0.24548129190134    3.07944770097295    4.66776036213192
H        -0.05764958332707    5.46284058572953    4.20072431074106
H         1.66239462294661    6.77537184167145    0.39286128969879
H         1.42123713314720    9.17497213567090   -0.06373554227324
H        -0.31155044917619   10.49142706628770    1.09972806033839
H        -1.81218082707601    9.38549346297447    2.71664982582511
H        -1.58728322795157    6.98191512989290    3.16505153289915
H         0.50845207364198    4.72627382727628    0.03139556226526
H         0.81249623416094    2.33470533935474    0.49595604430342
H         3.29171270514700    0.50234455824007    0.88159891319843
H         3.08002439677818    2.01934972170785    1.75585323342071
H         4.05821055727455    0.70957448449783    2.45349240296726
H        -0.77857977979738   -2.27522466868549    4.82632525984211
H         0.87019247391962   -2.93383946040878    4.73759077283966
H         0.47812642521948   -1.65440077287587    5.88405331392938
C        -3.39735238817784    3.62472427840928    0.63233270203876
O        -3.89697786224191    2.52682029212576   -0.11710259003785
C        -3.31482017445083    1.34075899808172   -0.02725437406558
C        -2.21899126905283    1.03128300944386    0.78256713628834
N        -1.67172347213016   -0.17834413063865    0.82441615181094
C        -2.18113027148098   -1.17081579036992    0.05951356099498
C        -1.46664874562491   -2.40715764812583    0.14636421265008
N        -0.45713743780775   -2.45472968581665    0.95420808071781
C         0.35120371151732   -3.60373056811403    0.99027111986202
C         0.42284250213276   -4.37825090830395    2.15307894272688
C         1.21874678798795   -5.49897829381974    2.18408856692770
C         1.97990240499601   -5.87986926571601    1.07030204694324
C         2.83865237043506   -7.04289897300881    1.03618711081626
C         2.95969256459887   -7.92200821716899    2.23328872301002
C         3.51566370195990   -7.29987565877315   -0.10762626493118
C         3.41628371199607   -6.47078843923503   -1.28826902648246
O         4.00032564688934   -6.66356547654934   -2.33323999417026
O         2.59169472863460   -5.38172644618590   -1.21447250333868
C         1.89939994497063   -5.09074421285812   -0.09034273273185
C         1.07886635254851   -3.96598651408727   -0.13280771775228
C        -3.28921354258230   -0.95808477023734   -0.76799439741885
C        -3.85447849120797    0.29368662114983   -0.81055845620933
Br       -5.35812544213029    0.67002753998662   -1.90692772248715
H        -2.35271989212981    3.82970356315348    0.38840296721974
H        -3.50266496635272    3.44361913351362    1.70356864238707
H        -4.01491042904244    4.47140453766074    0.34186729656389
H        -1.76454091506044    1.78977868767241    1.40211921213027
H        -1.75395814991334   -3.26058902561906   -0.45710914062831
H        -0.17823038120344   -4.10690289860756    3.00444348106790
H         1.25791818880723   -6.09842639154081    3.07855324777665
H         1.98297314661267   -8.30830754567271    2.51835982531597
H         3.61859094821928   -8.75903211057913    2.02270683648293
H         3.36409518537135   -7.36128990395644    3.07407281153320
H         4.17258322646391   -8.14999646756067   -0.20096877570936
H         1.04659322227889   -3.37055264837836   -1.03071946690556
H        -3.68043623345941   -1.76227363667470   -1.36972051746611
Cl        1.00743216237105   -0.34262653019971   -0.48759639810104
