77
 energy: -117.314569485324 gnorm: 0.000484144278 xtb: 6.4.1 (afa7bdf)
Ir       -0.64477936282298   -0.92055757598724    1.42998027294088
C        -2.08847828326774    0.83468606398103    4.01158501414337
C        -0.88106175737784    0.18753002932222    3.42708289399559
C        -0.51271308127691   -1.18881462568508    3.63204740981712
C         0.81308500819072   -1.37474155378357    3.10364124736001
C         1.69809228256410   -2.54221879267073    3.36923968606291
C         1.19938382532181   -0.16949856669794    2.45253818181767
C         0.14564123663255    0.81326251860789    2.66679367680846
C         0.28985840559423    2.25801110710951    2.42817737690222
C         0.20219539166998    3.13598573305501    3.50808259758785
C         0.39344569445361    4.49053319050952    3.32573183139987
C         0.67800409813066    5.01031426347152    2.06387248920441
C         0.90162707435985    6.45183570347691    1.87807671285497
C         1.91840773502151    6.90720402079789    1.04099791507845
C         2.13772823438689    8.26208504673738    0.87287108376248
C         1.34147173414188    9.18430631647830    1.53238900744077
C         0.32548179066769    8.74275461147340    2.36439665818438
C         0.10894977096724    7.38821511122911    2.53898873240310
C         0.75385114512173    4.12961967087685    0.98602411701739
C         0.56267987179602    2.77356563420980    1.16273601203161
C         2.55809798398920    0.12885966990811    1.91976667658515
C        -1.23832070188816   -2.14234427340096    4.52026819327040
H        -1.96384810467200    0.90004479251818    5.09290547016367
H        -2.98441785752813    0.24819085461763    3.82042865012138
H        -2.22927940365132    1.83560763376513    3.61472311122202
H         2.20339225461948   -2.37999918225752    4.32237650957362
H         2.45532362650188   -2.64686702487506    2.59790018441930
H         1.13402925772256   -3.46828522539425    3.43849146044311
H         0.01510550078094    2.75090403334879    4.49857759646398
H         0.34857557963931    5.15350313303706    4.17671758717118
H         2.55470321403123    6.19471696832408    0.53641537798958
H         2.93417395052507    8.60161529291657    0.22651320158170
H         1.51233208067470   10.24251322208140    1.39869467231896
H        -0.30032857501429    9.45826759558166    2.87817027473335
H        -0.69446059631327    7.05353304151832    3.17898557625647
H         0.94908009778532    4.51377906953095   -0.00401855996577
H         0.60168591078543    2.10986900210977    0.31174377936021
H         2.94626723916275   -0.70463718193949    1.33992558287907
H         2.54244942736131    1.01661598278717    1.29460046815769
H         3.23513404867807    0.30516100426191    2.75640589415569
H        -2.31291218800553   -1.99328220226056    4.45810160461538
H        -1.00568032180628   -3.17237619959043    4.26421984144560
H        -0.93296597908803   -1.97324469991458    5.55351448205378
C         3.45037491531397   -6.49836114633054    0.56489993253748
C         2.31540449140787   -5.52844943722122    0.58846868888905
C         2.46712979659940   -4.22746193578694    0.11480514204438
C         1.42763016857539   -3.32133025223625    0.17215969441882
C         0.18986545702834   -3.71263632717389    0.68433991779644
N        -0.86022766575006   -2.79257821592869    0.71682062478327
C        -2.05501378906571   -3.14760027287581    0.35850489724777
C        -3.06446833346907   -2.13586618623730    0.37031351307541
C        -4.39683961730831   -2.37038448746390   -0.02744386135482
C        -5.28068602979122   -1.33056358319399   -0.03975005323649
C        -4.82359900647460   -0.02962743550693    0.27362907600573
C        -5.66755545408954    1.09352338265054    0.20324637018085
C        -5.16799541045401    2.34665089138900    0.45181375323295
Cl       -6.19731365861918    3.73379985333981    0.34807772015425
C        -3.81044563186493    2.52710056772798    0.77069468846233
C        -2.97924672712055    1.44672330228203    0.87474369460383
C        -3.45740194507795    0.14074346550343    0.64723887401254
N        -2.62853176854520   -0.92519038810868    0.75269010892116
C         0.02310555498750   -5.01794545341671    1.15523046546379
C         1.07918872174126   -5.90339383622623    1.11305216522625
H         3.87136170308695   -6.59840489383255    1.56535629862015
H         4.23833229965575   -6.16505946803169   -0.10459304043976
H         3.11016113146401   -7.48297858802820    0.25172135962658
H         3.41381210279324   -3.92162596727609   -0.30418988097574
H         1.53968267950309   -2.31966788307818   -0.21430328395781
H        -2.26834399442870   -4.14543423994629   -0.00571923983160
H        -4.69172788931276   -3.36887723054638   -0.30516432659245
H        -6.31501528776378   -1.47734543243369   -0.30885874507129
H        -6.70282980810321    0.95697804200629   -0.06519878365033
H        -3.43181425832052    3.52404134665378    0.92603170672103
H        -1.93084437082559    1.58911228241173    1.08283201382932
H        -0.92168472128526   -5.31703560360481    1.58323087508694
H         0.94748976810229   -6.90504239698622    1.49362177119319
Cl       -0.09722668115867   -0.19045868569162   -0.77707968885851
