68
 energy: -110.888474234322 gnorm: 0.000318478068 xtb: 6.4.1 (afa7bdf)
Ir       -0.82525170437295   -1.04493252438779    1.32898892791258
C        -2.22680563520988    0.78804373675510    3.84337424184678
C        -1.01200974104090    0.15995981445252    3.25431839400550
C        -0.55077392795191   -1.17087960968087    3.53849352494912
C        -1.16196947681017   -2.09813315077603    4.53335356659586
C         0.75235218533241   -1.32406746573790    2.94448123517927
C         1.69950892444668   -2.43681486773237    3.23382763940002
C         1.03633046665202   -0.15172961200704    2.19396605801573
C         2.34696052031435    0.18253700240322    1.56885422743366
C        -0.06990763360611    0.77896195877311    2.38493107581387
C        -0.04480798146973    2.20180271481728    2.00875605493583
C        -0.14552024681647    3.17104005107915    3.00622386033676
C        -0.07987702221150    4.50587699469324    2.65557367594195
F        -0.17530930292452    5.43624103754553    3.62941341353618
C         0.08059247453952    4.92722856917477    1.34783413909040
C         0.17443443654411    3.94104977556348    0.38128379696206
F         0.32890051150696    4.31513934776680   -0.90623518648321
C         0.11589031494328    2.59397801032179    0.68192587693332
H        -2.47408464008195    1.71477833573301    3.33327710695564
H        -2.03516257663437    1.01288703529884    4.89312333243778
H        -3.08020336109789    0.11469878628034    3.80487283767514
H        -0.88795701543412   -3.12867414786061    4.32597192156972
H        -0.79711899850482   -1.84532562574529    5.52953912746804
H        -2.24481927556252   -2.01092409683489    4.53917299183777
H         2.15749311938418   -2.25808029767968    4.20723748626771
H         1.19017671923935   -3.39631259371815    3.27313766682013
H         2.48640886232824   -2.48733442631262    2.48826038848402
H         2.74136144403136   -0.66017741794316    1.00649175687287
H         2.25570377121093    1.03559784580279    0.90316092203080
H         3.06309517247530    0.43043141178222    2.35319196983634
H        -0.24936325441623    2.89989912946336    4.04396293398191
H         0.13184548210291    5.97281887921230    1.09403346811585
H         0.16620400909311    1.86345404262699   -0.11071968540462
C         3.22296159444145   -6.69647733932515    0.55923482260230
C         2.10064883151924   -5.71227941781655    0.60713493604257
C         2.28542102732760   -4.40722689233870    0.15253036191977
C         1.25686309668162   -3.48933102602113    0.18290289817108
C        -0.00204288527196   -3.86975171143651    0.65037820920903
N        -1.04520566631361   -2.93794381902166    0.65111803754410
C        -2.21515567390122   -3.26481877260000    0.19572377865450
C        -3.21963775662106   -2.25073750834381    0.21066574066044
C        -4.51209763845463   -2.39115220595752   -0.30560462079921
C        -5.37165479273922   -1.31874965102239   -0.27864321431852
C        -4.92912170993980   -0.09749932577775    0.25810397550977
C        -5.77523628280985    1.06327838986908    0.31364778202581
C        -7.08274070187855    1.26128724211179   -0.08319388717124
C        -7.38807131876336    2.60252284970239    0.21273203487969
C        -6.25639624365146    3.13176142919629    0.76710259758918
O        -5.28511263896084    2.21736790785834    0.83352449289360
C        -3.61861263087269   -0.03714132928538    0.75189213806054
N        -2.79970570395359   -1.07421670266985    0.74324884470078
C        -0.20177212790557   -5.17527966281521    1.10135596782553
C         0.84481396247651   -6.07574151265668    1.08615292031319
H         3.03265198618704   -7.54376743039636    1.21221359408166
H         3.33853332568914   -7.07094214779733   -0.45819932448750
H         4.16201318404950   -6.22848191718692    0.84541456656999
H         3.25043500403765   -4.11260069635115   -0.23164745218755
H         1.39226596561124   -2.48663470282669   -0.19325214244232
H        -2.40941817340092   -4.24407230613745   -0.22520596251150
H        -4.81371204257655   -3.33718803828823   -0.72456348457150
H        -6.37064584869080   -1.40809945585569   -0.67173533597127
H        -7.74192878774094    0.54506816946809   -0.52751774645693
H        -8.31607647694242    3.10630462864516    0.03905675072344
H        -6.03639055232942    4.11321734262299    1.13868080078931
H        -3.24358449098711    0.89042378405064    1.15807258100295
H        -1.16556571839726   -5.46644948910127    1.49029876281693
H         0.68379712748276   -7.07930798297283    1.44980364061489
Cl       -0.40708986243777   -0.45141434264848   -0.94731681164170
