58
 energy: -101.841855868752 gnorm: 0.000602881933 xtb: 6.4.1 (afa7bdf)
Ir       -0.35686132214956   -0.77223266824019    1.66432950175682
C        -1.91862077471251    0.99807505200489    4.23154486977988
C        -0.69370859054290    0.39679144757197    3.64670137057437
C        -0.26642121404553   -0.95609635886043    3.89673867285930
C        -0.95776456280873   -1.90808783526983    4.81111337691967
C         1.06242818472374   -1.10485658701037    3.37586800172122
C         2.00496523609480   -2.20726796727242    3.70400039353832
C         1.40102291134291    0.10361877172119    2.68130680551146
C         2.75299275542132    0.43831774208526    2.16069013432197
C         0.30514744048871    1.04265634642118    2.86510067452050
C         0.38161548615415    2.48106259418070    2.56161357335982
C         0.23337374594679    3.40392548255817    3.59535796983379
C         0.34674405009433    4.75196290116343    3.31251862542736
F         0.20680097547815    5.63681673108234    4.32063834624444
C         0.59908546561569    5.22936538779481    2.03916534096674
C         0.74160305375040    4.28704846485710    1.03588841247896
F         0.98752613457189    4.71410892326426   -0.21981219497182
C         0.64216824735994    2.92927327034178    1.26921831573020
H        -2.08141918818706    2.00563645608774    3.86388782101086
H        -1.80399674176167    1.02914401738404    5.31575591208353
H        -2.79851374063660    0.39452712522037    4.01879958871394
H        -0.66755405733667   -2.93386173176318    4.60316429423960
H        -0.67798604916831   -1.67919177114354    5.84008835990946
H        -2.03716746758759   -1.81739095814600    4.72903381212205
H         2.47756318489059   -1.97194440439632    4.65859486809523
H         1.49371506415346   -3.15985357306020    3.80800540645232
H         2.78468972856769   -2.30102294591337    2.95499301770270
H         3.17907059791344   -0.39423266821977    1.60693893650748
H         2.72159527104055    1.31220037410607    1.51748775369475
H         3.40898126149130    0.65183140688215    3.00567904289988
H         0.05752764197604    3.08923811388929    4.61065204493626
H         0.68089993299824    6.28429947482524    1.83778141632831
H         0.73311442925567    2.23583913437639    0.44798385578515
F        -4.13229335644188   -3.64422223928286   -0.63349269230866
C        -3.87329746462189   -2.39561955994171   -0.24156162130883
C        -4.78940098647234   -1.38398531909126   -0.46220221084206
C        -4.43449397524331   -0.10174837282490   -0.07246253409219
C        -3.20482900437411    0.10514712069171    0.54217924435935
Br       -2.70809007736278    1.86495130599618    0.99251311806043
N        -2.34815754575729   -0.87589796338450    0.81138515332694
C        -2.65022692883761   -2.12760778345686    0.38613171423199
C        -1.60386839520908   -3.08806078583673    0.53766783400356
N        -0.46929097476459   -2.66550913302305    1.00157712437822
C         0.61205307553320   -3.55458915242208    1.07278361919722
C         1.85083400904853   -3.15371586272129    0.57077844817575
C         2.91410100588375   -4.03703694686532    0.58886884620098
C         2.76175366675433   -5.30537112152355    1.12989084217569
C         1.53455512752863   -5.69722883046562    1.64573957999178
C         0.45619282329536   -4.83365721466271    1.61076127887594
H        -5.73412154538608   -1.59162929428923   -0.93937710747410
H        -5.09632694698185    0.73239568469678   -0.24078125834148
H        -1.74166329482129   -4.10636596429521    0.19227055409165
H         1.94454312147093   -2.17168507171662    0.13289476797279
H         3.86481824529346   -3.73627155696514    0.17747518724472
H         3.59713016775489   -5.98725990730044    1.15070118235490
H         1.41664630668421   -6.68073404063361    2.07287087018462
H        -0.49670437351467   -5.12943400430169    2.02228557301375
Cl        0.20674623015428   -0.08966373490235   -0.54767983451244
