51
 energy: -85.891003790384 gnorm: 0.000597783256 xtb: 6.4.1 (afa7bdf)
Ir       -0.75228089317921   -1.10467570318191    1.12879882784657
C        -2.23988754365362    1.01866709794341    3.52658847301255
C        -1.07711895392964    0.27754378733557    2.97404539563944
C        -0.73544154799236   -1.07236751439498    3.36703880663595
C        -1.49767071272477   -1.88242204461036    4.35794527340158
C         0.59722282943538   -1.34508794065804    2.90958702371908
C         1.44864219797136   -2.47595632237330    3.36622522865360
C         1.01523282824991   -0.23334035959940    2.10643403238278
C         2.37623957484334    0.00343724246184    1.55544126663855
C        -0.02838969145321    0.77941856463203    2.16218110757119
C         0.14022772067920    2.16713588748417    1.64874497491010
H        -2.07497041661190    1.15358278739565    4.59634384311125
H        -3.16712891238752    0.46383928016943    3.40654714384948
H        -2.35035028117451    1.99531592489899    3.06788679779842
H        -2.56783810697409   -1.72931633064602    4.25090531642383
H        -1.27657883050580   -2.94100718180100    4.25664166301195
H        -1.21228007015889   -1.57281102296832    5.36413128674943
H         0.86586989829313   -3.37719577805553    3.53524114838975
H         2.24135170725992   -2.69469089796523    2.65751777054001
H         1.90956050902800   -2.19032475843694    4.31296771366913
H         2.31858405751903    0.46831754266898    0.57409538434346
H         2.94200329462330   -0.91997901774795    1.48045500703234
H         2.90981564874178    0.68579526786999    2.21770828341653
H        -0.78950721322674    2.72508995300957    1.69425766846987
H         0.48691887352050    2.15436468598186    0.61779275568210
H         0.89066018027757    2.68111313231488    2.24932634965114
F         3.68036416982132   -6.25864504095244    0.82615167957019
C         2.59176151346409   -5.46989439631714    0.76100571249397
C         1.39470146005472   -5.93422615026451    1.28217368997389
C         0.27560694073768   -5.12765174993678    1.20428395178571
C         0.36754934396234   -3.85937755347069    0.62779704795835
N        -0.75724789301055   -3.02984778241195    0.52141481621282
C        -1.85874145901050   -3.51999815429696    0.04119794440260
C        -2.94220798815626   -2.61442428049416   -0.16247621396696
N        -2.71246921325761   -1.33765209960609    0.23664014734700
C        -3.60123642307390   -0.40773603103544   -0.10454545884457
Br       -3.19717077872322    1.37725544151455    0.28955943110086
C        -4.79641889895672   -0.68674484661750   -0.75414191588651
C        -5.08139152627633   -1.99679956842310   -1.11135756424368
C        -4.12807943406831   -2.95527831254036   -0.82758246160760
F        -4.31413338256023   -4.22645936842936   -1.19299845692860
C         1.58827039306677   -3.40401168813866    0.12599564257115
C         2.70450020683334   -4.21568744448126    0.18057145099091
H         1.35007611383978   -6.91183298617137    1.73437817211776
H        -0.66306753851413   -5.46771404667760    1.61375502518202
H        -1.93775054378616   -4.55026642404518   -0.28680611557101
H        -5.48727039827374    0.11156153171966   -0.97431707461652
H        -5.99773372949338   -2.26296214313214   -1.61373312529227
H         1.63569848410847   -2.43022863007766   -0.33674064076661
H         3.65209026491783   -3.89395342480950   -0.21991337721086
Cl       -0.16922683010620   -0.40624313263097   -1.07765984932120
