59
 energy: -88.334739441415 gnorm: 0.000239495340 xtb: 6.4.1 (afa7bdf)
Ir       -0.63415517203459   -1.21501288479605    1.19674429859799
C        -2.02205337141111    1.10119660988404    3.34789467439155
C        -0.84205262224767    0.34196907293429    2.84434049456621
C        -0.37324083569777   -0.90261717124461    3.40157946991300
C        -0.98919051339134   -1.59045025703519    4.57347668690502
C         0.93944616664112   -1.16063580075695    2.86175513791837
C         1.92652625352465   -2.15275087952624    3.37422923275157
C         1.21285918182257   -0.16608895079223    1.88849767960568
C         2.50437381600671    0.03399492638187    1.17458871249442
C         0.10024663194742    0.77009828227873    1.87079204810037
C         0.11427062119375    2.06597748003700    1.13325458280414
H        -1.75916178741093    1.54737592103334    4.30793943175449
H        -2.87988996697531    0.45268363296261    3.51013391077175
H        -2.29793279572179    1.90620482788446    2.67259421371506
H        -2.07139135312702   -1.49880500065056    4.55642475211456
H        -0.72974351104939   -2.64485932138924    4.59664143689400
H        -0.62468939483215   -1.12860990503748    5.49210262544925
H         1.47897065485000   -2.79040826514513    4.12959354223003
H         2.32520522457030   -2.77437402229761    2.57475283567765
H         2.75961730485364   -1.61582323199037    3.82827817961511
H         2.33220668997327    0.31149704185618    0.13701248908652
H         3.10699696834350   -0.86916362926007    1.19927840682824
H         3.06021828263816    0.84202764978185    1.65133629307625
H        -0.87620744746552    2.50838911668064    1.07858606431500
H         0.48485870715416    1.92266444895619    0.12076468931586
H         0.77954591582568    2.76483795798640    1.64120882838835
C         4.30404715207746   -6.99037459031273   -0.46963511218393
O         3.55067055896436   -6.69115532106345    0.68817772361414
C         2.52946169844535   -5.81110310336859    0.59173375062017
C         2.16125091093184   -5.13061550941034   -0.55954256830461
C         1.07699998599139   -4.26819477344931   -0.55984268327299
C         0.37526750545803   -4.03982771071152    0.61474532172942
N        -0.72700796649328   -3.16845457308337    0.61194322600887
C        -1.75865990982098   -3.48205099032553   -0.10697595888554
C        -2.81924175348745   -2.52357870104132   -0.17600375859536
C        -4.00395553420800   -2.70269556908237   -0.89298660041027
C        -4.93993021378556   -1.68783297035753   -0.90699901948092
C        -4.66340797652785   -0.51684714300025   -0.20690518095671
C        -3.46743467895046   -0.40427607091375    0.47758861645590
N        -2.56257346745628   -1.38070137593011    0.50992362094181
C         0.74261095803040   -4.70015035766877    1.79147086845393
C         1.79333830712730   -5.59954395871525    1.78857561951665
O         2.19960491716427   -6.32736253572683    2.85442805206069
C         1.47528615047732   -6.22631665116639    4.06411241712364
H         5.04218250389961   -7.72453281088716   -0.15288649730039
H         3.67453836209658   -7.42145868462319   -1.25329486982683
H         4.81568606667174   -6.10277739281975   -0.85266547285973
H         2.70758094453395   -5.27564911344701   -1.47651928158329
H         0.80104190014903   -3.73927461353517   -1.45777365816459
H        -1.81325922651471   -4.42346411363647   -0.64099281596715
H        -4.16143003319467   -3.62275401292952   -1.43202839260121
H        -5.86285589397937   -1.79633287951067   -1.45423929641567
H        -5.36598442247601    0.30019755567858   -0.19272682516264
H        -3.22876937190653    0.49790414531044    1.01917148790894
H         0.16000224161870   -4.52810779425007    2.68015336998396
H         1.54328956811927   -5.21918225757372    4.48353569712370
H         0.42719122712885   -6.50440721027463    3.92449666754803
H         1.94963928910956   -6.93103654994749    4.74393086512769
Cl       -0.13636544697070   -0.78894001102025   -1.10466702951733
