77
 energy: -129.989329243956 gnorm: 0.000518758571 xtb: 6.4.1 (afa7bdf)
Ir       -0.62481299628670   -0.93750558701085    1.41718333863956
C        -2.04795725993710    0.81085685960110    4.00823298814367
C        -0.84701500553189    0.16799547243964    3.40815855124241
C        -0.45744924747602   -1.19791967605566    3.62127978266057
C         0.86012803893716   -1.37666288278112    3.06283859143799
C         1.75455783862980   -2.53898097713750    3.31759513939542
C         1.22796271424582   -0.16974824656515    2.40600368251073
C         0.16182869079353    0.79904604020131    2.61900959875751
C         0.30088854489053    2.24528021456286    2.38020924591832
C         0.25294311798861    3.11582457239155    3.46836533850664
C         0.45539371044617    4.46929443946545    3.28919109787175
C         0.70711239653598    4.99473545280016    2.02263012470095
C         0.94276779769491    6.43469837995576    1.83973062079177
C         1.93907216821043    6.88333530931926    0.97470899085239
C         2.17114493993362    8.23657168411327    0.81044159548291
C         1.40797190233538    9.16370521889539    1.50161622230719
C         0.41173510674683    8.72881130401353    2.36065624048172
C         0.18255584449650    7.37582735614157    2.53138747047699
C         0.73833714221329    4.12130473812960    0.93658914434265
C         0.53951325840048    2.76611949663652    1.11028986697462
C         2.56679088975912    0.15055226222220    1.84147650328299
C        -1.15694570439911   -2.15402657498664    4.52541180379523
H        -1.89390700556435    0.90385977723415    5.08375552981252
H        -2.93901801103892    0.20579608284299    3.85709555110658
H        -2.21420936886058    1.80006372035826    3.59273197808089
H         2.29894171214822   -2.35524411321283    4.24477351499997
H         2.48197146118881   -2.66418894270043    2.52072738923112
H         1.19364331514742   -3.46214042603874    3.43270551944011
H         0.09091773963086    2.72581474819346    4.46114589657100
H         0.44488217025279    5.12659431658425    4.14554658110961
H         2.55023092252690    6.16700297325487    0.44521544817433
H         2.95192608159929    8.57102247794965    0.14271228148218
H         1.58910347272860   10.22057977428461    1.37097835329799
H        -0.18853369589724    9.44849443861093    2.89837848646679
H        -0.60552053295734    7.04655160993679    3.19273192877654
H         0.90624968600849    4.51057638225350   -0.05625698639573
H         0.54851985345150    2.10778292749775    0.25450516857864
H         3.05364498944107   -0.73807198757767    1.44964215441744
H         2.48815703400732    0.89149886114058    1.05125298631789
H         3.19151041974763    0.56479317853075    2.63387250102539
H        -2.23413646112661   -2.01974734458336    4.47898291543881
H        -0.91334047854191   -3.18304629624116    4.27634937094324
H        -0.83784321638889   -1.97094562872243    5.55219927649172
F         3.23775419378268   -7.62806267754946    1.30670712876874
C         3.39446960433648   -6.57142322124248    0.49497696109679
F         4.57751915266677   -6.01657454173942    0.81811880805988
F         3.54838204038961   -7.07234852697408   -0.74884779721091
C         2.26080668802632   -5.58790523592732    0.57391304286671
C         2.44331305252755   -4.31253635913723    0.04681392530346
C         1.41299943666452   -3.39483616523169    0.10114183908393
C         0.18819932402011   -3.75797442467116    0.66160749673696
N        -0.85225443418786   -2.82050556248443    0.69768291768869
C        -2.03713332733013   -3.15035684459076    0.28969893599319
C        -3.03683981480647   -2.12926976740862    0.29942326411183
C        -4.36147404392454   -2.35316933584710   -0.12718088392691
C        -5.24457956090900   -1.31200176928621   -0.13234563440198
C        -4.79104700421259   -0.01947519985663    0.21641323410205
C        -5.63514502683446    1.10417289572083    0.16173017389567
C        -5.14041831730093    2.35318231426733    0.44195816670170
Cl       -6.16949664551230    3.73973984443578    0.36280962752104
C        -3.78418244946661    2.52694809026973    0.77374999149803
C        -2.95341236457772    1.44530274257965    0.86441480693184
C        -3.42842142339514    0.14250807204209    0.61106250112814
N        -2.60168481630963   -0.92594211987791    0.71118278097762
C         0.00984579784707   -5.03973313229080    1.18300177634603
C         1.04690951995317   -5.95287958929240    1.14293291060814
H         3.39025957820433   -4.04502414730583   -0.39572143173374
H         1.53121877292444   -2.40474887917613   -0.31249482968453
H        -2.24957501303683   -4.13548561817503   -0.10981353215248
H        -4.65242110130161   -3.34486866019664   -0.43215661634399
H        -6.27416173072682   -1.45194863218101   -0.42233178155801
H        -6.66732558046062    0.97219923599014   -0.12052030022731
H        -3.40672228892726    3.52091059930344    0.94982234446578
H        -1.90671298825484    1.58549812718934    1.08181139865530
H        -0.92963516238538   -5.31169091631859    1.63836262424107
H         0.91646134776778   -6.94232500410607    1.55237864520908
Cl       -0.03083139138710   -0.26180097687553   -0.79106427869156
