51
 energy: -81.664105295668 gnorm: 0.000305450072 xtb: 6.4.1 (afa7bdf)
Ir       -0.71825638929692   -0.94327597513842    1.38798025102302
C        -2.21429936764729    1.16279084428251    3.80167125835252
C        -1.05159376061874    0.42014795919859    3.24993214614924
C        -0.72778342131527   -0.94101611455988    3.62411807370240
C        -1.51176934442619   -1.75919000367631    4.59190316123816
C         0.60867798814519   -1.21708837555017    3.18268738674855
C         1.44888721982383   -2.35913515896245    3.63303974085723
C         1.04347851046391   -0.09832667938787    2.39759283310172
C         2.41390362501389    0.13377582106194    1.86724676468183
C         0.01003843453573    0.92497420954957    2.46122273070682
C         0.19638676633113    2.31983110458079    1.97297873316691
H        -2.05792932537377    1.28489056985474    4.87430435522373
H        -3.14398776371418    0.61526882238038    3.66671463900515
H        -2.31510440797149    2.14497897794663    3.35286589426095
H        -2.57902376799808   -1.59726961578693    4.46886108186035
H        -1.29689516519773   -2.81791922681509    4.47831610979328
H        -1.24155156910039   -1.46654390775156    5.60735308440836
H         0.85425334599532   -3.25053989716602    3.81144976163877
H         2.22783187770870   -2.59357560629510    2.91385501536170
H         1.92703980254565   -2.07732764535913    4.57213259800627
H         2.37340613978943    0.61495387912817    0.89282281921164
H         2.97034393515519   -0.79461399952324    1.78383065245894
H         2.94630807453395    0.79966321576157    2.54706887591476
H        -0.73283461623308    2.88004457474555    2.00369041985344
H         0.56845908537068    2.32227312366660    0.95088713709616
H         0.93250268580083    2.82239427386359    2.60049799440401
F        -4.27191508718758   -4.03106777568003   -0.98842540541742
C        -4.08700319453414   -2.76346774567308   -0.60718181926132
C        -5.03609116836537   -1.80055813085321   -0.88785945894210
C        -4.75266131030818   -0.49479950316356   -0.51300586017932
C        -3.56244003061783   -0.22577123066838    0.14900046937025
Br       -3.15673038957963    1.55566704926161    0.56383153258759
N        -2.67799202134286   -1.16085483400028    0.48634384811221
C        -2.90617974775585   -2.43233631871072    0.07133805413012
C        -1.82503378111463   -3.34050157832811    0.27554513777467
N        -0.72447871261637   -2.85502389163488    0.76227424357529
C         0.39653352937988   -3.68826865459232    0.87317808063423
C         1.62383727739881   -3.23394630059871    0.38931152899812
C         2.73183115339437   -4.05837141469465    0.45261681162059
C         2.63335298459046   -5.32086091813596    1.01964940789562
C         1.41674358633881   -5.76527326845878    1.51607599468886
C         0.29522475550540   -4.96124160832903    1.43637771659642
H        -5.94818739763463   -2.05931385129638   -1.40162284901497
H        -5.44032565358952    0.30696848568033   -0.72972241696052
H        -1.90441751977853   -4.36949033767682   -0.05609065667089
H         1.67766399899752   -2.25657717066436   -0.06515358673926
H         3.67557081407845   -3.71480941599986    0.05845244243806
H         3.50264656627556   -5.95704347809513    1.07540745165911
H         1.34032216810299   -6.74355744617172    1.96422035071981
H        -0.65070867327233   -5.29904585493119    1.83218109774163
Cl       -0.13689573867924   -0.20583197662888   -0.80760063356786
