79
 energy: -110.532001293627 gnorm: 0.000851056267 xtb: 6.4.1 (afa7bdf)
Ir       -0.97904248552048   -0.35270544264949    1.64575146302532
C        -2.22813298381209    1.70328627940165    4.15794714821808
C        -1.15805815855690    0.82016435805639    3.60861618255575
C        -1.22538404861453   -0.61908037747556    3.81547946638712
C        -2.31535813266302   -1.31446086555017    4.55988970063367
C         0.04075516277845   -1.17622195156160    3.47942933331117
C         0.49942158067238   -2.55618190929359    3.79530212625689
C         0.82675034994534   -0.12969601893470    2.89983633123759
C         2.26902143019156   -0.24793955282021    2.54010910176841
C         0.11331719392950    1.13292359163578    3.06372999601778
C         0.85411079973497    2.44147076133725    2.92095981441943
C         0.99070528625306    2.93989074909186    1.47441076486529
C         1.99381968561463    4.08871636798748    1.41743128022227
C         1.55898025852793    5.23357957700763    2.32904926273991
C         1.35317980913919    4.73681978359240    3.75801729127013
C         0.33680067737891    3.59617869474097    3.78310591488707
H        -3.21064558558615    1.32809633820314    3.88308140944908
H        -2.13611952731700    2.72849394198695    3.82690995447647
H        -2.16180908755225    1.68974144864225    5.24672633472492
H        -2.28356665234355   -2.38625240859690    4.38650992638302
H        -2.19172300981264   -1.13981253784539    5.62915690037250
H        -3.29350147937516   -0.94119326870575    4.26849542991122
H        -0.30724118078645   -3.27868530637923    3.70495123326736
H         1.32081720785396   -2.86344676387995    3.15441879945604
H         0.85104020996567   -2.57255039231935    4.82779419359133
H         2.51446158445068   -1.26469823741377    2.24635636668800
H         2.52830575571784    0.42114704213833    1.72458748785127
H         2.88019867604874    0.01248510741320    3.40581236631046
H         1.87086460799013    2.22216642586363    3.27291892738745
H         0.02416073185944    3.28763740457532    1.11028605265806
H         1.31187715406413    2.13233855005130    0.81810049506167
H         2.08298539139730    4.44663177749348    0.38991462811637
H         2.97883949122376    3.73290642107667    1.72959267405125
H         0.62460463916543    5.65860408651181    1.95542857045829
H         2.31057733792684    6.02548396160511    2.31500032758015
H         1.00069774741828    5.55685904303468    4.38705324310514
H         2.30627445205617    4.39289893152073    4.16627450536003
H        -0.60201515563963    3.98136467521843    3.38473883791278
H         0.17898859572436    3.26392185689624    4.80994388925282
Br        3.68368383612054   -5.92817750119860    0.30550425898580
C         2.18079712667522   -4.73675188017838    0.42399623303315
C         2.32351385516072   -3.41254669229146    0.03559909371957
C         1.24725218105959   -2.55278268194562    0.13831252202756
C         0.01966570462550   -3.01640916121539    0.60985210408977
N        -1.07215339633111   -2.14470838283952    0.72252851390174
C        -2.23831322478043   -2.52297560241599    0.32590296326386
C        -3.36567724086213   -1.65730344237683    0.52481907258280
C        -4.65107276434885   -2.13277970891711    0.33086848462065
C        -5.71354673432408   -1.29848212852798    0.67219231145830
C        -5.44588851755933   -0.01434966317020    1.06008671720899
C        -4.10868829888270    0.47774333530747    1.08923669581816
N        -3.88259888739902    1.78713840835186    1.27402616597740
C        -4.97966973910947    2.69060919330198    1.61058382117905
C        -4.45184481743090    4.07948237277037    1.95008187434976
C        -3.76136617374830    4.71348602514446    0.73880902643218
C        -3.06943175645465    3.62854912673791   -0.09429377272075
C        -2.68293091040736    2.44076032293079    0.78434529606207
N        -3.08000487765490   -0.39482885790362    0.94248767079291
C        -0.10885510240590   -4.35408925950015    0.99334486872875
C         0.97067831937412   -5.21126041631166    0.90818488780562
H         3.26813290854581   -3.05587996466954   -0.34289298439723
H         1.33895786144985   -1.52466404986406   -0.17297840893830
H        -2.38557818315332   -3.48035811907858   -0.16298957295032
H        -4.81244641945985   -3.13302781905894   -0.03250446353045
H        -6.73048218562251   -1.65244696224354    0.61249445646156
H        -6.26074234820181    0.64301255309348    1.30329378405466
H        -5.51301824503279    2.29296919657286    2.47734311630392
H        -5.68012655874769    2.77491829421965    0.77155158472868
H        -5.28751170836110    4.69949097799558    2.27462304628980
H        -3.75953556861865    4.00691321994192    2.78815427682304
H        -3.03647338726845    5.45257011992085    1.08151511701717
H        -4.49062670842777    5.23903308494414    0.12145869950078
H        -2.17316074917574    4.02191671058068   -0.57276962130508
H        -3.73117217575018    3.27676719491367   -0.88712921503775
H        -2.06980106277969    2.78663093775128    1.61691962752376
H        -2.10710951358670    1.72843006893763    0.19685099169550
H        -1.04627180952802   -4.71635020614340    1.38569745887461
H         0.87501928904186   -6.23935696060874    1.21779108504644
Cl       -0.27021534614404    0.39281117522935   -0.52970051871887
