78
 energy: -118.611105766292 gnorm: 0.000177027102 xtb: 6.4.1 (afa7bdf)
Ir       -1.06918356105359   -1.40316591977253    0.94609594206661
C        -1.17163049931582    0.83130586425045    3.65194412234617
C        -0.40805770360056   -0.01584361627015    2.69653756645859
C        -0.20489239830965   -1.42457562204573    2.98859791853843
C        -0.68323909299686   -2.11174724566207    4.22257250686785
C         0.79262011108543   -1.92706977627171    2.09825111979702
C         1.55792630310694   -3.19006367614509    2.27390085296857
C         1.07152358381279   -0.89043906846175    1.14631901506483
C         2.16307899743102   -0.94459707755176    0.13500416743822
C         0.36608267228083    0.32241849189303    1.55393330257292
C         0.77192226487385    1.66273612317463    0.98522269569543
C         0.17839095096442    1.96471303553156   -0.39910427179979
C         0.85116710829113    3.19573433615855   -0.99889630821686
C         0.67526262799164    4.40478176700595   -0.08446636496233
C         1.21023403453009    4.09832717313395    1.31132323244024
C         0.51111591567532    2.86928365356281    1.88988603614101
H        -2.10085446056217    0.34442847059836    3.93904495983108
H        -1.39834895364328    1.81478658679892    3.26613683907427
H        -0.57035799453646    0.93974387824274    4.55586574320723
H        -0.63265904359372   -3.19098401661739    4.11098906422848
H        -0.04585686343648   -1.82591102126536    5.05993239963159
H        -1.70315954406724   -1.82928654808699    4.46794435266810
H         0.94154532811297   -3.98497073681412    2.68387854838672
H         1.99623537493444   -3.53000500295619    1.34094634951349
H         2.36802516491028   -2.99283732233290    2.97747620912482
H         2.36412896944583   -1.96693492284715   -0.17301485365968
H         1.91973670023491   -0.35611203496089   -0.74451117099194
H         3.07354409799167   -0.53766698943183    0.57763443045901
H         1.86010811807607    1.59094842938509    0.85310145375651
H        -0.88947982787564    2.15551767612372   -0.30050659809531
H         0.30172646862711    1.11404756049074   -1.06766788275148
H         0.41866765818405    3.40567216964285   -1.97912133935660
H         1.91699172044428    3.00083465774161   -1.14228286985781
H        -0.38574231670926    4.65570913251682   -0.01728054610824
H         1.19621556858213    5.26821393607786   -0.50351348465270
H         1.04390532977488    4.95471161801309    1.96722734256301
H         2.28748533495736    3.92373194728335    1.26000922033533
H        -0.55791353711632    3.07980029220569    1.93131656502089
H         0.88308030948184    2.67751634074436    2.89649255352150
C         6.59116922032128   -5.18485202228145   -4.38461971191206
O         5.31273521114328   -4.60953331522529   -4.55908382588626
C         4.37407770761412   -4.79391438007205   -3.59549906996110
C         3.12437563651173   -4.21616076437405   -3.84020921564481
C         2.10175111151062   -4.34307854103757   -2.92800152121752
C         2.28366979747559   -5.06095371906441   -1.74394409880267
C         1.18693500613555   -5.22101839782355   -0.78009976368068
C         1.02163401925377   -6.41911955609868   -0.08015091435021
C        -0.00938171151985   -6.57363283716345    0.82986819952196
C        -0.90533497087197   -5.54576948452702    1.05715817497479
C        -0.75113176691831   -4.34270286146732    0.36559980675481
N        -1.65245945898235   -3.28798706411221    0.56189598310013
C        -2.92149017431303   -3.54804368678185    0.53237103424129
C        -3.83039766231452   -2.45608678713473    0.66258412712774
N        -3.26523579572423   -1.24877503787968    0.90559172887265
C        -4.05523109893625   -0.17978655271618    0.87816549503915
Br       -3.27060744066985    1.50140324661292    1.09789229071183
C        -5.42970412646602   -0.23597143198489    0.68693940466726
C        -6.03271338814471   -1.46806444431555    0.48414866235838
C        -5.21193950845117   -2.57836717001211    0.46120055647597
F        -5.72041570700906   -3.79333603483359    0.23317270959262
C         0.29278681255013   -4.18095177500336   -0.54101608764156
C         3.53129036137463   -5.63084096115521   -1.50608671865333
C         4.56835409320987   -5.49958603496427   -2.41105834791052
H         6.53046797516322   -6.27405547607569   -4.30294285406424
H         7.15402050732487   -4.92104892499207   -5.27802065038098
H         7.09516631693487   -4.77602060381303   -3.50392293617051
H         2.98343431772519   -3.67491513103975   -4.76233408858906
H         1.14099557566837   -3.90421608552056   -3.14899809132448
H         1.69615482071964   -7.23968511043870   -0.26560390741900
H        -0.12019537816433   -7.50475101811370    1.36348352668148
H        -1.69875744279722   -5.65528100884826    1.78028157971923
H        -3.29849588971132   -4.54490898800278    0.33368120575352
H        -6.01132458016234    0.67182037897964    0.69834695635754
H        -7.09599560757301   -1.56384111510590    0.33271157783222
H         0.37823307120776   -3.24479905820343   -1.07137418401792
H         3.71030723990124   -6.16995349164011   -0.58799261557845
H         5.52092543457569   -5.95103921943384   -2.18452057054595
Cl       -1.38379544281681   -0.97879907616406   -1.38693266450010
