82
 energy: -114.191037367359 gnorm: 0.000358930326 xtb: 6.4.1 (afa7bdf)
Ir        0.02390810390079   -0.14684264597312    2.44843669806318
C        -2.35938299803898    1.39827685687142    4.33507012697659
C        -0.94701451115334    0.94171721910960    4.20494913696210
C        -0.46456439582315   -0.34598294121084    4.61084870680982
C         0.97385023978534   -0.33843787321818    4.48919634840888
C         1.91132724635542   -1.32539592257646    5.10107511332523
C         1.36243287738716    0.91001166103380    3.92995280423260
C         0.16793135846907    1.71009735401780    3.74342472135500
C         0.19185616113347    3.15331849888617    3.46803512040704
C        -0.44665694741257    4.03705670909212    4.33788970408644
C        -0.37254438643786    5.39961966149404    4.13030818484719
C         0.33834429961096    5.92341576423998    3.05146496523656
C         0.42871160867130    7.37641002935377    2.84583637604832
C         1.63119944264212    7.96289125208675    2.45586697945212
C         1.72103663137970    9.33087739820676    2.27450168567487
C         0.61022030721876   10.13475668214497    2.47326483535454
C        -0.59145513728703    9.56189752780374    2.85728898597625
C        -0.68142898060942    8.19497282843695    3.04527318930040
C         0.97026523181345    5.03620422719573    2.18126595942115
C         0.90259071946181    3.67308373045503    2.38597428606126
C         2.76161604944618    1.39522065126069    3.76607163579983
C        -1.27213542530059   -1.38522153551425    5.31389684886497
H        -2.58092700131188    1.57635522430447    5.38812460406929
H        -3.05207062351732    0.63913416066481    3.97795268158470
H        -2.52854464479610    2.31742940139603    3.78172122484531
H         2.75734783448444   -1.53206439436844    4.45072571305611
H         1.40693867514236   -2.25363592465210    5.35260035362679
H         2.29920453711338   -0.89884535449407    6.02759144098837
H        -0.97196494631220    3.65815198740246    5.20044145389572
H        -0.84880205336188    6.07024496495907    4.82987825134891
H         2.50690286537085    7.34578482277202    2.31580728738732
H         2.66162861166763    9.77298394545707    1.97854688477096
H         0.68070899478712   11.20312358065952    2.33070350034864
H        -1.46110515308972   10.18452399023425    3.01087358162143
H        -1.62577286860389    7.75569678127210    3.33234156012183
H         1.50829181548975    5.41858185808147    1.32680888444419
H         1.38117100318279    3.00169393166555    1.68919312714967
H         3.41741021986202    0.91318549876813    4.48681092800347
H         3.13542405525799    1.17981571089284    2.76525554859843
H         2.79827030893687    2.47385191565595    3.90468375547775
H        -2.31143099335431   -1.35175805713407    4.99943019049040
H        -0.88313433068671   -2.38324705801222    5.13039152316100
H        -1.23624472375307   -1.20047846701018    6.38809490398206
C         6.33272231114146   -2.54685475384326   -0.84953250522731
C         5.11046839822817   -3.02569718633954   -0.07324105499719
C         3.83629277002842   -2.33028194283209   -0.54991327699162
C         2.55791649454009   -2.87607344111966    0.08751510688356
C         2.49665253730987   -2.62742726880883    1.59267046281524
C         1.13454923281712   -3.02404724912492    2.18107155356405
N         0.11139566093613   -2.08128724200249    1.80740376602459
C        -0.80085981414119   -2.44490249043839    0.97595209630309
C        -1.76480036353878   -1.46590525070275    0.56421857029453
C        -2.81670627604912   -1.76743101967060   -0.32188375484754
C        -3.68799603444936   -0.77837704926877   -0.67932241465518
C        -3.46967156899770    0.53462619823812   -0.21151969704778
C        -4.29454221548720    1.61154241210895   -0.59187806163322
C        -4.02052968918938    2.88543809946821   -0.17315033983427
C        -2.89652081556481    3.13110934844331    0.63029233752710
C        -2.09055619804063    2.10323853894747    1.04021511681261
C        -2.36156258681232    0.77761935470902    0.65524830630049
N        -1.57325630222975   -0.24351278867859    1.07842169370197
H         7.23476020484054   -3.03421436020948   -0.48525374974052
H         6.22739614129514   -2.77145646323344   -1.90918754702660
H         6.45630134649462   -1.47121752104977   -0.74086620080593
H         5.00485684349800   -4.10563238414709   -0.20164535575762
H         5.26977650496694   -2.82688904909135    0.98754056048626
H         3.75951542557521   -2.44920873774242   -1.63350578403116
H         3.90634923621202   -1.26026785867832   -0.34469384952394
H         2.48319174184700   -3.94731329822473   -0.11401959714599
H         1.71001484892047   -2.37753777623783   -0.38719523878482
H         2.67589968255679   -1.56857396282070    1.78502830786061
H         3.26437164284272   -3.21188025990957    2.09786181936538
H         0.86732820635039   -4.02613585425776    1.83117463681287
H         1.20645872210418   -3.03570032633400    3.26845789234456
H        -0.84239764112106   -3.45145447321289    0.57272879264938
H        -2.91868824224967   -2.77473189026067   -0.69071465821407
H        -4.52602868734620   -0.97718418200276   -1.32937820072114
H        -5.13813104381575    1.41025790428194   -1.23412219206906
H        -4.65208156578492    3.70682266034697   -0.47332473840014
H        -2.66153562822358    4.14235665415922    0.92374268666813
H        -1.20839114743557    2.30430936204309    1.62363943104557
Cl        1.30341179024491    0.52987589578844    0.56070326836667
