59
 energy: -104.614503289141 gnorm: 0.000364014917 xtb: 6.4.1 (afa7bdf)
Ir       -0.67762933083679   -0.84585794709817    1.41480273433022
C        -1.90797443963173    1.04868383087502    4.09955782685650
C        -0.79721058357168    0.40195006572627    3.35423288952894
C        -0.34387736016384   -0.94420867831767    3.61255893062600
C        -0.92015603710855   -1.85129753409195    4.64446625544954
C         0.92464536724159   -1.11804390190421    2.96058134873136
C         1.88854849757937   -2.21680972975774    3.23300108477885
C         1.17765904486797    0.05660676462594    2.18199681002547
C         2.43185923395913    0.37545295398368    1.44893490071307
C         0.10735954929667    1.00449386113856    2.43740443553699
C         0.14414755021056    2.42887242966105    2.00398769407174
H        -1.62246990711750    1.10138902184149    5.15100613205780
H        -2.82567018174711    0.46821935990617    4.03917176871554
H        -2.10133664085146    2.05379636734273    3.74088181568545
H        -2.00197652768718   -1.76279794403946    4.68606182876137
H        -0.65314105446555   -2.88661641623805    4.45169058891087
H        -0.52188619822592   -1.57725160260224    5.62216404280603
H         1.38728962325403   -3.16624970748538    3.40109569239461
H         2.60782320442918   -2.33117128063954    2.42799520572491
H         2.43701740143866   -1.96358685478061    4.14136556751139
H         2.22966461483034    1.02858573530712    0.60457475712432
H         2.92066756241463   -0.52333072525476    1.08456143971804
H         3.11561610518279    0.89236794209229    2.12318217547597
H        -0.80287219802310    2.92727356625973    2.18449625860769
H         0.37813062365417    2.50330851727392    0.94459924355027
H         0.92681987272766    2.94791203773835    2.55744761250260
C        -7.05424181144308    0.51285656051245   -0.55269068131166
O        -5.73666571327450    0.66540201731264   -0.04299134967991
C        -4.93953382292630   -0.39062549131002    0.05225179674176
C        -5.24005122278050   -1.70481546653446   -0.31801986347420
C        -4.26361699162617   -2.66988977079986   -0.18397954146505
C        -3.01645744648056   -2.33357371276763    0.34257476954455
C        -1.91672147841649   -3.24196989011969    0.38399888119730
N        -0.75528733820293   -2.79238157173353    0.73677763389874
C         0.33138682417869   -3.67973979886217    0.77500277074121
C         0.18973843740930   -4.89169728939917    1.44797868710060
C         1.24737205756656   -5.78184586950902    1.53280821956419
C         1.04204437080692   -7.05365041090568    2.29927585163708
F         2.08370562841667   -7.89156509308825    2.24420710443188
F         0.80968854443654   -6.82156793310329    3.61124670834043
F        -0.03201228848853   -7.74687562180892    1.86551542445060
C         2.46756019307661   -5.47971049758341    0.93291280560178
C         2.60977147966241   -4.28929956469334    0.25827771583861
C         1.56235139673943   -3.36269580231195    0.15934949382555
O         1.80829121007270   -2.25043436346713   -0.51868802623170
N        -2.73673553395378   -1.07142076928141    0.76599589245274
C        -3.65617160721303   -0.14286857038942    0.58832433007044
Br       -3.27648291878372    1.63848235897146    1.02378211195647
H        -7.03571652706688    0.15015315447676   -1.58253919272989
H        -7.63921199417223   -0.16206866726148    0.07526539624838
H        -7.48827191975829    1.50968020873239   -0.52353025987068
H        -6.20562864098655   -1.95856218433246   -0.72392786439142
H        -4.45067292609737   -3.68414814001822   -0.49719131093854
H        -2.05013138170050   -4.26607282513474    0.05267769564971
H        -0.74679673389691   -5.12197731231032    1.93397445457550
H         3.29022186120374   -6.17342358452262    0.99711822671978
H         3.54165520453624   -4.03523132664233   -0.21998472437590
H         1.03488393929228   -1.65427249249812   -0.65915563606369
Cl       -0.40575964180126   -0.17794641115324   -0.88497356025402
