80
 energy: -115.402459583745 gnorm: 0.000337421738 xtb: 6.4.1 (afa7bdf)
Ir       -0.41237293076301   -0.84977777798953    1.91117536376722
C        -2.03394156357811    0.84194690735119    4.50008514746857
C        -0.79322897869948    0.27299014828667    3.90962749202528
C        -0.35018390242592   -1.07523661340185    4.13369516037544
C         0.99179180095695   -1.19087720326775    3.62603221205915
C         1.96819581597285   -2.26103464911900    3.98100171633567
C         1.31831639372787    0.03938650939274    2.97363297784389
C         0.20617854566847    0.95415318878323    3.15564188655294
C         0.28737638225298    2.39828046360724    2.89393415426143
C         0.11070414900320    3.29987643113874    3.94226091463490
C         0.25212472368559    4.65695280732472    3.73009164124375
C         0.57933283469431    5.15445890937479    2.47053794461440
C         0.75493024586981    6.59786175405660    2.25135724286987
C         1.81056238479873    7.07029431685716    1.47399264618725
C         1.98453792258947    8.42726545560728    1.27276337685703
C         1.10226093657247    9.33375776347538    1.83784568928048
C         0.04687304460584    8.87471214446186    2.60921553009696
C        -0.12407939857790    7.51836849675898    2.81805988492489
C         0.74710458368321    4.24945769309079    1.42388105201995
C         0.60178157323928    2.89339785637499    1.63048919850717
C         2.66544796034640    0.42333765326874    2.46948058098355
C        -1.03623282349661   -2.05646787789870    5.02418869543439
H        -1.94530257879958    0.81457067157825    5.58678867509962
H        -2.90941924001385    0.25459750393751    4.23003526631567
H        -2.18636640422066    1.86819420437841    4.18312607822894
H         2.57865258330066   -1.89613497637220    4.80866710004780
H         2.63677087155757   -2.49086179928676    3.15598294106233
H         1.46830861342308   -3.16664973464392    4.31198375991406
H        -0.10724286308225    2.93620607978403    4.93471928483730
H         0.13304918442923    5.34045224662239    4.55750101697541
H         2.51114216844217    6.36986566224119    1.04273734268991
H         2.81236728793853    8.78070992216671    0.67482454334558
H         1.23781079332455   10.39352148102490    1.67855046686394
H        -0.64567327338501    9.57820152960125    3.04849700631718
H        -0.95855408647285    7.16649439100888    3.40714432480093
H         0.97581354936060    4.61634136477566    0.43425680372279
H         0.70266379383491    2.21146991565082    0.80032904132911
H         3.28603558374616   -0.45094060009112    2.29676921987222
H         2.59431505640924    0.99546555756868    1.54859586000095
H         3.14967883059566    1.05470165103929    3.21518634352947
H        -2.11474106684976   -1.93745171024569    4.97579525499383
H        -0.78388610230069   -3.07923482513776    4.75872381376254
H        -0.72199100604960   -1.88518525933769    6.05450898769987
C         6.42021521402511   -4.14502223262950   -1.15885452901900
C         5.24711953143252   -4.66780200168343   -0.33677164017065
C         4.04705563613446   -3.72472215000236   -0.40096441588627
C         2.87614660128292   -4.21980341949607    0.44665406171242
C         1.69475104162670   -3.25670445571041    0.36563183361364
C         0.51416009965164   -3.72949509628950    1.22421506524277
N        -0.55234785570116   -2.76113935030192    1.18090351467490
C        -1.63901015351721   -3.06356843658106    0.56371334563740
C        -2.64503565510338   -2.05802683496573    0.39770767628925
C        -3.80626169384090   -2.25278362376907   -0.34636548544386
C        -4.66973335616868   -1.19920796311752   -0.56761595029122
C        -4.33493137875408    0.05773824201398   -0.05872118791088
O        -5.02677006906270    1.18279403771392   -0.20130370808219
C        -6.25403892996775    1.16850781569492   -0.91695592758966
C        -3.14411376628592    0.16295236932795    0.69417453240761
Br       -2.72071890052335    1.88400166118528    1.32274052440575
N        -2.34069997593090   -0.85321971740625    0.94905956455842
H         6.74610443205809   -3.17503737510603   -0.78862572472118
H         6.13645599668229   -4.03300713064671   -2.20337590242093
H         7.26207448206998   -4.83183324568291   -1.10543506847877
H         5.56137555397088   -4.78746032884015    0.70261933549454
H         4.95577781893347   -5.65247464199062   -0.70957118158550
H         3.72574355227623   -3.62407471178706   -1.43991474529231
H         4.35212879910000   -2.73398139557875   -0.05696481882706
H         2.57115712954627   -5.20742879873119    0.09531835438023
H         3.20273770892760   -4.32549217512407    1.48335286010272
H         1.36525297556576   -3.16774309812272   -0.67033125066340
H         2.00109564605686   -2.26135162808056    0.69128726141497
H         0.84344319373662   -3.84622110729733    2.25677540348188
H         0.16012186879379   -4.69735503813652    0.85536324856577
H        -1.79094802133175   -4.04414006815284    0.12309009565238
H        -4.01788101590671   -3.22672027936005   -0.75625059699849
H        -5.57043969332751   -1.34365388062953   -1.14135551787394
H        -6.09848455380194    0.86968370154222   -1.95561361812707
H        -6.97731165829805    0.50627139202684   -0.43685872338920
H        -6.61606937120675    2.19352442457583   -0.88186821458715
Cl        0.24605537152404   -0.16333511256669   -0.28361610994354
