70
 energy: -118.072223576977 gnorm: 0.000878580317 xtb: 6.4.1 (afa7bdf)
Ir       -0.56830909867824   -0.66061967066227    1.01904498910499
C        -1.96569925042888    1.26510757680827    3.52057554883741
C        -0.80743301036908    0.53002427082339    2.94636859203047
C        -0.50797700710891   -0.84640839540043    3.23012995583702
C        -1.29758826985856   -1.72248792620964    4.14170571034443
C         0.81769834019931   -1.12467437028481    2.73361654781331
C         1.62846731560823   -2.32676125561235    3.07102303994705
C         1.28384440895459    0.04113041349764    2.06143441678982
C         2.64568043931172    0.27154313366178    1.50865699372644
C         0.26936424829260    1.06947599769217    2.18036066531996
C         0.51902002508863    2.50448810939526    1.86250959059229
H        -1.78885760630982    1.40395784313610    4.58789434352573
H        -2.88869548724479    0.70149769902083    3.40928536115937
H        -2.08569527728065    2.24087456757975    3.06154852815512
H        -2.36343932414875   -1.54210150233203    4.03214162431542
H        -1.09254113833398   -2.77282265963330    3.95472996038969
H        -1.02333500936356   -1.50308844919145    5.17431543960687
H         1.00723384661503   -3.20697876473291    3.20859813179828
H         2.37030478640410   -2.53800736114389    2.30609636520309
H         2.15414692319078   -2.13357843407386    4.00707386209964
H         2.58978711528767    0.75178329048705    0.53386227052969
H         3.19827221032629   -0.65789789528834    1.41141280106560
H         3.19318645263812    0.93560513840652    2.17793382488521
H        -0.38887807835960    3.09383457975755    1.93574130597032
H         0.92978797707772    2.61364498864296    0.86234950871750
H         1.24766765305870    2.90018852845992    2.57076579280593
C        -0.47943417535451    7.74714704716135   -0.67019163610684
O        -0.85455862396790    6.37444061566041   -0.60095946959948
C        -1.81761979112452    6.05299945249900    0.26477464759410
O        -2.36701276673264    6.85751577614014    0.98536952020190
C        -2.14082162913358    4.60250398755624    0.24322827359181
C        -1.43093610318976    3.70037234146058   -0.54454522947098
C        -1.77610201472564    2.36113411025673   -0.55093275255339
C        -2.84565154504401    1.90766931446286    0.21813232471900
C        -3.33538760884795    0.52834904391557    0.05080117298749
C        -4.66828522157053    0.38509367460502   -0.34923182617145
C        -5.17567210445491   -0.85991340154708   -0.67479132891732
C        -4.32255773419694   -1.94757307354800   -0.61432440417862
C        -3.01802498972368   -1.75334382516694   -0.16775872478424
C        -2.07649379168008   -2.83050341909916   -0.08281166625718
N        -0.90203091715051   -2.57099160880621    0.38644913192554
C         0.05269024920291   -3.59428476590619    0.46803995218502
C        -0.27153630023537   -4.81564914326347    1.05997740631643
C         0.67233146759500   -5.82283820867494    1.13280095707659
C         1.94033351138784   -5.61291800122115    0.60498602407069
C         2.97961785127770   -6.69721782751196    0.64309820330137
F         2.64250629489804   -7.73220605621951    1.42645832189707
F         4.16719151800896   -6.25038103062079    1.09448776894730
F         3.22079215740350   -7.21321989422575   -0.58075092366001
C         2.27027953165871   -4.39716265951409    0.01392514659406
C         1.33241126982687   -3.38531741971309   -0.04476908293202
N        -2.53384725721168   -0.53472897638303    0.19415630655065
C        -3.55950473599986    2.81493126308225    1.00504967607384
C        -3.19946509988957    4.14679569028462    1.02882611433140
H        -0.23021525011948    8.12172094582472    0.32420551680818
H        -1.30092503004484    8.34128794073859   -1.07468575296180
H         0.38376957264089    7.78854380511597   -1.32847022293882
H        -0.61623186628446    4.05316959205636   -1.15529005518140
H        -1.23711469470704    1.67187174109055   -1.17979340759786
H        -5.28099623484667    1.26895668220563   -0.42624935581534
H        -6.20075301181435   -0.97381326833718   -0.98962114349836
H        -4.64811414803660   -2.93518163696118   -0.89730877449396
H        -2.33999824079502   -3.81587782250518   -0.45186231727968
H        -1.25330586229810   -4.96805922670138    1.48102025790032
H         0.42658210052759   -6.76605868414093    1.59496021228527
H         3.25803572908255   -4.24861433672730   -0.39413084166153
H         1.56894073673132   -2.44124205636191   -0.51018724182059
H        -4.39072519888926    2.47409031436400    1.60332031514799
H        -3.73640077905040    4.85949819634460    1.63596913345173
Cl        0.30971355230821   -0.26529964445719   -1.16660439663658
