77
 energy: -113.556159125514 gnorm: 0.000682782272 xtb: 6.4.1 (afa7bdf)
Ir       -0.41709067483967   -0.67141090216828    1.68484395727897
C        -2.32576997400186    0.97461668267361    4.00902491884595
C        -1.03673136280335    0.34397108216903    3.61540973173572
C        -0.65027506516869   -1.01505782405559    3.88929726086701
C         0.74980768212264   -1.14612917037426    3.58027885949329
C         1.63011598339069   -2.28187723674472    3.97533491376656
C         1.19709207027911    0.09034430325213    3.02907724632920
C         0.07996670070642    1.01707913650393    3.04538140930999
C         0.18733954881478    2.47000622855773    2.81328751672294
C         0.89557840025513    3.24140753191470    3.73187704383276
C         0.99597023507087    4.60829601411078    3.56576322221754
C         0.41061661091892    5.23914205011287    2.46948657760645
C         0.52763493720595    6.69413925754409    2.28626890264921
C         0.81959062113329    7.22925517800232    1.03344826487199
C         0.93054835360885    8.59676185878671    0.86162853615748
C         0.74203950684118    9.45156666076862    1.93583673706843
C         0.44909432135725    8.92965041713064    3.18528418901150
C         0.34732621415097    7.56179803815711    3.36113536131519
C        -0.28464780716097    4.46048900362290    1.54741169753548
C        -0.40381825104143    3.09547358797118    1.72185351789678
C         2.60348078303496    0.46213856428158    2.71297879967697
C        -1.47404053685276   -2.00020185319500    4.64654433702991
H        -2.35410642916301    1.05705275505958    5.09621843259290
H        -3.18214075229080    0.37622525378071    3.70446234151245
H        -2.40742371259018    1.97600196512340    3.59276966581380
H         2.09551249867377   -2.03715592145633    4.93126099877455
H         2.42746967987901   -2.44025303965724    3.25387527399757
H         1.06536582072526   -3.20017109491580    4.10775423548873
H         1.35904230697799    2.76801712434780    4.58438002822755
H         1.55384487125594    5.19385632883647    4.28131396488069
H         0.98177728748912    6.56819805890297    0.19426998032617
H         1.16719339021197    8.99840345804294   -0.11296471361729
H         0.82400960778325   10.51988612447103    1.79972936222912
H         0.29859000833477    9.59232011456975    4.02540325018974
H         0.10577577080652    7.16355468077952    4.33580957469434
H        -0.74685914730594    4.93316773583271    0.69360324584064
H        -0.92937118762827    2.50574506629195    0.98593850494937
H         3.16224033350989   -0.38388756196682    2.32098374473183
H         2.63097361759754    1.27332113524581    1.98982289303111
H         3.09822504712986    0.80075922803978    3.62412037133635
H        -2.53376498982983   -1.84059369343498    4.46981844431740
H        -1.22160149446410   -3.02178798329434    4.37625170310229
H        -1.28627614885609   -1.87683012259812    5.71407250221746
Br       -5.32616768445672    1.94441242790103   -0.22207984600887
C        -4.10963997159691    0.48044713506767   -0.30282025940378
C        -4.26773096342041   -0.52790641258314   -1.25277723832223
C        -3.36236449699537   -1.56842433002489   -1.24878534413459
C        -2.33197937878707   -1.57861756372420   -0.30595604130464
C        -1.32864578979073   -2.59691569739170   -0.20601562746660
N        -0.40355632155428   -2.44047316763302    0.67975776053094
C         0.62994970237087   -3.43876133349866    0.79406274142254
C         1.95015380893548   -2.94877056197732    0.17986008975196
C         1.89194599888452   -2.90096960712132   -1.35007341094763
C         3.23143857400446   -2.50097589646234   -1.90590925719431
C         4.14715597827619   -3.45940529555449   -2.31977203730826
C         5.38710145751081   -3.08500123577355   -2.80879046692837
C         5.72717451310156   -1.74500886578509   -2.88577962479712
C         4.82171513016542   -0.78222938018716   -2.47032122126819
C         3.58335977017973   -1.15906257029563   -1.98195833403343
N        -2.19595228797048   -0.58723150830185    0.61046903836183
C        -3.06300397224119    0.41731486318565    0.60654945890397
H        -5.07435874293418   -0.48880182964311   -1.96740919306826
H        -3.43599931023306   -2.36738649619941   -1.96903374456159
H        -1.36167192267911   -3.46476760025948   -0.85541022561330
H         0.31868724150512   -4.35934601975405    0.29136018385138
H         0.78603052440905   -3.64619212689997    1.85294908631579
H         2.17688568960091   -1.94897979386829    0.55333397752463
H         2.74560460694224   -3.62678583959064    0.49079428089569
H         1.61454056091385   -3.88188694390282   -1.74019671705103
H         1.14346687252955   -2.16884789880633   -1.65688833665279
H         3.88952944369465   -4.50779855026366   -2.26709552911168
H         6.08916030820299   -3.83968233562931   -3.13339874687621
H         6.69366255188308   -1.45190918486029   -3.27007003694438
H         5.08226964424573    0.26477387051826   -2.53076851240293
H         2.87802825219384   -0.40661352355277   -1.66141122288301
H        -2.93491106033635    1.19655892371102    1.34293980531302
Cl        0.46878359813642    0.31707512820078   -0.28634025450083
