83
 energy: -126.850076830472 gnorm: 0.000448308178 xtb: 6.4.1 (afa7bdf)
Ir       -0.86618559445380   -0.57645418033410    0.78962367074241
C        -1.72774124508344    2.10905791132516    2.96488427930352
C        -0.49151342950418    1.27314565171433    2.80916945594898
C        -0.51448687395712   -0.20891156523088    2.89691001897031
C        -1.50401888562255   -0.81403894281476    3.86142987650140
C         0.92440140970661   -0.59451410074779    3.09613748633155
C         1.38998837901910   -1.99179511239570    3.32061075229590
C         1.67833703210196    0.52438826872894    3.07021019211925
C         3.15671131071159    0.62236178823235    3.21103534343010
C         0.80809822319202    1.69425520356343    2.88771206604402
C         1.35972234326341    3.08275452024184    2.83091308850043
C         1.07635601524711    3.74738825335283    1.47588507377712
C         1.78057701440528    5.09821827809855    1.39922372883339
C         1.32047790248251    6.00646221896809    2.53723489148799
C         1.56845859662618    5.34293258122757    3.89003801685354
C         0.86167754273920    3.99190427184258    3.96351646664226
H        -2.61750657541283    1.57029680476050    2.65807445369845
H        -1.66195835301556    3.03203866621421    2.39778978222667
H        -1.84592335018887    2.37008767169330    4.01683081552000
H        -1.52722307620782   -1.89756169633750    3.80565933781252
H        -1.17504008220634   -0.54405694340746    4.86577344303955
H        -2.50551482430127   -0.42153339895799    3.72284912124332
H         0.64465500117088   -2.57092304978146    3.85647048009284
H         1.60919566351945   -2.48036640821116    2.37154645639398
H         2.30311172078096   -1.99147392171649    3.90943178883520
H         3.60333942787884   -0.36155911427309    3.31527631140323
H         3.58685529705388    1.09278079457316    2.32675384514670
H         3.42504581970884    1.22278513636880    4.08035313835620
H         2.44637242259775    3.01470573556385    2.93241924980957
H         0.00452631042120    3.89869337800542    1.35121370324227
H         1.42472959188806    3.09482019327148    0.67190652087084
H         1.57111739767481    5.57168429609989    0.43710286036982
H         2.86153315306779    4.95209748775398    1.46628177614205
H         0.25402638227510    6.21656832409656    2.42671333282388
H         1.85273457303580    6.95875295617808    2.48758062747187
H         1.20834676128211    5.99141867183089    4.69192133902402
H         2.64317463363530    5.20526055035408    4.03340504061416
H        -0.21226762382815    4.14912767648364    3.87970401276417
H         1.06321298826293    3.51844490611698    4.92606972139800
O        -0.42158685417382   -4.73578950768311    2.61968988957416
C         0.12943273140623   -4.55422864850801    1.41749945851380
C         1.09043522588955   -5.48345072182429    1.00834535738563
C         1.71807042057027   -5.37361512454624   -0.21107432734020
C         1.39012251346772   -4.31568566838184   -1.05842647873385
C         2.09171470836492   -4.18304218043913   -2.37685699377323
F         3.33927247955362   -3.68110127747695   -2.25069859170437
F         1.45312729490048   -3.37556080656561   -3.23976434617741
F         2.23842530928224   -5.36434261390734   -3.00702757301726
C         0.44785173623117   -3.37963380418625   -0.67592268203949
C        -0.19351742885010   -3.48545599699584    0.55580658403829
N        -1.15871278493046   -2.51256830478789    0.89053083387774
C        -2.35118695418372   -2.87848407884230    1.29040663459603
C        -3.33226792352156   -1.85363796219134    1.44880571902314
C        -4.62024058098009   -2.07870547175332    1.90266559368787
C        -5.47771973461313   -0.98282223391725    1.97867867451568
C        -5.08011435194249    0.22067454038373    1.45455581891656
C        -3.80044874144152    0.36624516028757    0.84988089816275
N        -3.49429859641652    1.45882720140328    0.13154237045790
C        -4.52815661013655    2.38978250632895   -0.31615181559073
C        -4.27640607697380    2.80362070538324   -1.76450489580995
C        -2.96912475810301    3.59080245352933   -1.89741523617371
C        -1.99090714597580    3.14917579868776   -0.80546648179977
C        -2.18733906766766    1.67479391272692   -0.47046742534621
N        -2.89348470489405   -0.62599446374810    1.02585972590166
H        -0.98481024739170   -3.99514222008840    2.89207258068003
H         1.32870767718854   -6.28815399157497    1.68421475861956
H         2.45812253739346   -6.09731614281452   -0.51388261490360
H         0.19640692034840   -2.56120943992047   -1.33159445862870
H        -2.62765040441365   -3.92345603742958    1.37351377246367
H        -4.92502844379936   -3.06066440271724    2.21882832431953
H        -6.45106929050415   -1.08093454134025    2.43149370666108
H        -5.73173682836572    1.07304569659600    1.52962264569103
H        -4.54231576845998    3.27149509912946    0.33144556000998
H        -5.49948229559082    1.90045597607442   -0.27148660796220
H        -4.24292322666065    1.90592800377382   -2.38410050232963
H        -5.11792207391361    3.40394880577927   -2.10867758248865
H        -2.53779804286259    3.42153427224611   -2.88453627131574
H        -3.15407541358445    4.66085616866054   -1.80222801375729
H        -2.14962555115307    3.73998073635627    0.09718872017518
H        -0.96181305305722    3.30687205622535   -1.12785033985241
H        -2.08574975662218    1.07742411229301   -1.38691808932358
H        -1.38305145656574    1.38239852150135    0.24027943146649
Cl        1.24202861324974   -0.31293784823622   -0.07594429684494
