55
 energy: -85.160723365680 gnorm: 0.000510389042 xtb: 6.4.1 (afa7bdf)
Ir       -0.62441042666419   -0.98757815750304    1.22162637553059
C        -2.06929094430736    1.39706981428897    3.23344445284909
C        -0.88975411721060    0.57210308595111    2.84400429492885
C        -0.55383982117520   -0.71023754968902    3.42260436597874
C        -1.31460273601681   -1.38450246997780    4.51324419227320
C         0.78206246586275   -1.04779723954066    3.00525701895086
C         1.59413026979602   -2.16472227063834    3.56142670591791
C         1.21171721110372   -0.06004986466754    2.07713695241849
C         2.57438450611939    0.09317473062214    1.49276607827743
C         0.17689544040050    0.95960007930591    1.99383360152442
C         0.35047120272264    2.26328753355461    1.29338824446705
H        -1.83180943146953    1.92834487157917    4.15609027383892
H        -2.94329156440985    0.77888080840109    3.42136289266523
H        -2.30641133707700    2.13831763861366    2.47498308215610
H        -2.38587734296461   -1.25699889592358    4.38470316638655
H        -1.08667443037250   -2.44574848021408    4.55220686585652
H        -1.03416787664627   -0.94261856297646    5.47008968564059
H         0.98584769241722   -3.04695795852159    3.74236784825403
H         2.40889357958894   -2.43303330278240    2.89568755701714
H         2.01862234496103   -1.84618763407753    4.51389828565357
H         2.51385253512873    0.45470944855987    0.46894207564327
H         3.11987933334213   -0.84567077217354    1.50234549327273
H         3.13510259496993    0.82558393882338    2.07423568268930
H        -0.57391655287937    2.83201862641732    1.27037981619218
H         0.68758509359834    2.10628294534596    0.27084081532006
H         1.10948590009777    2.84995434736951    1.81115482532945
C         2.72417550620031   -7.68414580685381    2.38276511055849
O         1.58231380199077   -6.86856313020339    2.18615453508747
C         1.71544142862825   -5.69608320163792    1.54023514936969
C         2.91138852884487   -5.20485447403518    1.01665246398447
C         2.91983975046511   -3.97290890316800    0.37844869734143
Cl        4.41204554072202   -3.37845874413354   -0.28206520526217
C         1.77813732778226   -3.20416089455290    0.25947453621053
C         0.58374601934522   -3.70496040394451    0.77854081301661
N        -0.57742192450814   -2.92599307934822    0.66553216868304
C        -1.66167155561052   -3.43506400106199    0.17368102059390
C        -2.79352935977551   -2.56041395824112    0.08612990676580
C        -4.01649690707206   -2.90050398512685   -0.49425483567119
C        -5.01565724215002   -1.94793743330351   -0.55952254508331
C        -4.76129027854147   -0.67758625849504   -0.05319775437137
C        -3.52468301845588   -0.40844518570984    0.50718919453913
N        -2.56293484331958   -1.32284161269527    0.59295325755612
C         0.54606249326939   -4.94063653638872    1.40688077590812
H         3.48353734005748   -7.16493839613256    2.97263788412835
H         3.15020149275298   -8.00703468006112    1.42957779501409
H         2.36743929966857   -8.55234151728803    2.93266474849315
H         3.82950429242218   -5.76154456288935    1.09434251595475
H         1.78674111266518   -2.25670398180735   -0.25280682549869
H        -1.69945123027208   -4.45308675622299   -0.19499095023184
H        -4.15817640433158   -3.89345515273839   -0.88942346292070
H        -5.97131620782130   -2.18230897779767   -1.00107527831865
H        -5.51091836982211    0.09590432235293   -0.09044722434730
H        -3.29818806993295    0.57095206688047    0.90007570038655
H        -0.36847989877956   -5.32682205750239    1.82632691192537
Cl       -0.19903021335152   -0.41793140804356   -1.06503075283884
