70
 energy: -104.064777674341 gnorm: 0.000336164751 xtb: 6.4.1 (afa7bdf)
Ir       -0.38042164130513   -0.82493393091514    1.63777919378668
C        -2.28579069711149    1.12715208326254    3.78090627705327
C        -1.03546213911742    0.38515204143463    3.45207186458831
C        -0.79801052925581   -0.98916088975871    3.82223192217013
C        -1.76436266742773   -1.85581202644790    4.55791359546984
C         0.60667459982606   -1.25188187849082    3.67309266354826
C         1.31403268816388   -2.41341312309555    4.27288046677550
C         1.20120750625630   -0.11210198794708    3.05767328683261
C         2.65907689109508    0.14149034398412    2.86596095181782
C         0.18037181491782    0.91561670519928    2.94479645525375
C         0.47087435268206    2.32629824166630    2.55975237761830
H        -2.32479521278195    1.26594568055863    4.86224128440653
H        -3.17251422174324    0.57228848012535    3.48447472132874
H        -2.31040047392475    2.10361789878689    3.30887441586449
H        -2.78821273809898   -1.63295717339908    4.27049686775397
H        -1.56785424456314   -2.90850920451521    4.37296449657135
H        -1.66505887969603   -1.67772061076748    5.62943343857712
H         0.70993529316948   -3.31637569091258    4.23245005679574
H         2.27889878383100   -2.58528511732879    3.80504655980262
H         1.49384970490172   -2.18595646077408    5.32520277173899
H         2.83792607906168    0.67981042903911    1.93769188117128
H         3.22520403394014   -0.78568152675133    2.85791474567657
H         3.02649527802997    0.75725516676201    3.68785793696018
H        -0.42389139000398    2.94087504562807    2.58687792314791
H         0.89724808429948    2.36918635003643    1.55828488106816
H         1.20324996669117    2.74298169366467    3.25078613921836
C        -7.28578089838055    4.84565778689581    0.03197185184780
C        -5.95315492584014    4.13914331136188    0.22513036876989
O        -6.19880674721264    2.73762245862047    0.17166946166602
C        -5.19443950374212    1.86394703816072    0.31348120834508
C        -3.84445895832359    2.21858959349426    0.54786294341037
C        -2.88754066162381    1.25634477650401    0.71116277435767
C        -3.20745549662648   -0.11204567295278    0.62392436169133
N        -2.24885187615910   -1.05293237500972    0.76830073050900
C        -2.52117396501924   -2.32245880828733    0.43212888012392
C        -1.35424046406786   -3.13768686243964    0.29177788945910
N        -0.21244951508082   -2.65258132788941    0.65470446244389
C         0.96586697319006   -3.34830951908374    0.20724866169173
C         2.27411523241237   -2.55966207459377    0.06904005636776
C         3.03985460974366   -3.80116216696042    0.57562432600996
C         4.17098922546563   -3.53473449400271    1.53288752898522
O         4.05580097324873   -2.93603572963249    2.57801214661210
O         5.31188290569081   -4.02505559901703    1.06852006032932
C         6.50639796374648   -3.83906881727151    1.83087782944068
C         1.70730554076327   -4.30717393457598    1.16358095619688
C        -3.82500302749665   -2.75426869551770    0.10984086702291
C        -4.84375284892397   -1.84712638334792    0.10433636148088
C        -4.55505993191249   -0.47680737888093    0.31522582897969
C        -5.52344459885926    0.52157795197312    0.19574904740583
H        -7.97695359809095    4.56338504723424    0.82108777343732
H        -7.13673856455009    5.92091053699349    0.05771336396057
H        -7.72011665056473    4.57031334668920   -0.92497196401290
H        -5.52164765543319    4.40518121973277    1.19775358031406
H        -5.25385927382366    4.42332225493795   -0.57092503700165
H        -3.55904003358296    3.25729785562698    0.58728730027006
H        -1.85292439261548    1.52830295616821    0.84973087714483
H        -1.43017089854549   -4.08662493537651   -0.23019902429703
H         0.73438466599392   -3.86667692828568   -0.72847006689741
H         2.32073324034633   -1.74211482894371    0.78384399394258
H         2.51893447713174   -2.19318753164659   -0.92289537813537
H         3.40721091864975   -4.42376560929841   -0.23888882254402
H         7.25682752478192   -3.41560486904411    1.16572838775290
H         6.83555015133552   -4.81187308258777    2.19489918523345
H         6.31400013451960   -3.16899932313894    2.66951806036524
H         1.49341027981391   -5.36604160372823    1.04953920866260
H         1.59976113046074   -4.00808802515310    2.20044530451898
H        -3.99044955203556   -3.79494832719310   -0.11587807860585
H        -5.85965025750510   -2.14482687716183   -0.10193530294039
H        -6.54531877833642    0.25605170454285   -0.02237492967760
Cl        0.41557388520385    0.19650140304112   -0.36939520963304
