54
 energy: -89.711767437037 gnorm: 0.000501505083 xtb: 6.4.1 (afa7bdf)
Ir       -0.78249163443645   -1.13225351453303    0.98619169551221
C        -2.05006622435273    1.38682549614702    2.95892552583361
C        -0.93243348195853    0.47289008297955    2.58804044565036
C        -0.69618430823530   -0.82697039607404    3.18811826403803
C        -1.51416389065711   -1.42376099429060    4.28065056015891
C         0.59968600359504   -1.27884169324980    2.76916959564645
C         1.33260240764727   -2.44963120416286    3.32339171336768
C         1.10380738107815   -0.33427656831812    1.81933527568970
C         2.48245708619904   -0.28990983946641    1.25578044239624
C         0.16539514035666    0.77687358105656    1.75117101612963
C         0.44061010533300    2.05453367766898    1.03974332178974
H        -1.75881077958011    1.95428729216627    3.84381850135263
H        -2.95459241061234    0.83534111119354    3.20316756964216
H        -2.26497565548144    2.09844097368819    2.16547703518446
H        -2.57367561711779   -1.23145667308596    4.13415677845694
H        -1.35540832638905   -2.49577904324605    4.35131268171550
H        -1.21942140269987   -0.97400469316438    5.22961606501346
H         0.65252308744811   -3.24891595493546    3.60407689133299
H         2.05741538322267   -2.83702124431828    2.61320030608041
H         1.86874243138549   -2.13114700778463    4.21788510692345
H         2.46962300803003    0.09264598768174    0.23831810323315
H         2.94507156068076   -1.27180063853106    1.26330479995242
H         3.09057557892878    0.38396833399717    1.86002009900622
H        -0.41860833668486    2.71776358231756    1.06175124288298
H         0.70768851321031    1.86527330951756    0.00165201571756
H         1.28303826055942    2.55529574417756    1.51660140412244
F        -6.16126758185406    0.86135519462290    1.13004361620716
C        -5.99369982301972    0.37052033471467   -0.11210297468192
F        -7.19853053841034   -0.01221649068001   -0.54335918188129
F        -5.61931341053692    1.41390598672665   -0.87406411113241
C        -4.97719013035298   -0.73952613328199   -0.13688722033390
C        -5.26740863816810   -1.99228698083407   -0.68329294957481
C        -4.27463603644414   -2.94984292362935   -0.67380938912199
C        -3.03213124887681   -2.64186598648201   -0.11030932341858
C        -1.90905889998664   -3.52555029217070   -0.08209499091528
N        -0.79225660273243   -3.03973741364685    0.37098540916940
C         0.35208456115158   -3.84782131060951    0.41779545413087
C         1.54175659635455   -3.37444317913104   -0.13617036472563
C         2.67340243945865   -4.16773523479630   -0.10606028192237
C         2.63516507547490   -5.41947142875126    0.49185121084826
C         1.45416772853947   -5.88509828995825    1.05106165594462
C         0.30913436856265   -5.11148301296550    1.00846806371495
N        -2.77623084738130   -1.42301082311578    0.43341215169323
C        -3.72252109994216   -0.49534507096468    0.40198605394522
H        -6.24038399659643   -2.19497007461748   -1.10328081556601
H        -4.44169658844153   -3.92545304197617   -1.10078835183145
H        -1.97550846917597   -4.53643692280323   -0.46582146279713
H         1.54497604869251   -2.40960795907973   -0.61894369414339
H         3.58829649748277   -3.80931374575101   -0.55185011300559
H         3.52345297850507   -6.03080722344772    0.52083482322589
H         1.42436316390699   -6.85524925830219    1.52183282519321
H        -0.60785699912485   -5.46200271547574    1.45656144624474
H        -3.48388591125365    0.47188177454944    0.81994528424392
Cl       -0.49977651531697   -0.46128948556900   -1.28174322636061
