77
 energy: -124.206020964218 gnorm: 0.000217690054 xtb: 6.4.1 (afa7bdf)
Ir        0.78453647033929   -0.26840316625047    1.91860235409556
C        -1.81694618766029    1.05760651392328    3.67609043180803
C        -0.40638630218836    0.59148571825525    3.61350345902183
C         0.03315221259738   -0.70318203409967    3.98636337719656
C         1.48146769259854   -0.70714458835330    3.96176382832482
C         2.37273026307156   -1.78528913081823    4.45439404511027
C         1.93411902123425    0.60842584836489    3.57887950861669
C         0.77446257914957    1.41334080968311    3.34869687936010
C         0.79429475965148    2.82220047632865    2.97902704097598
C        -0.02919161909809    3.75647448691044    3.61421036188206
C         0.03995050856724    5.09170809227365    3.27709772715508
C         0.93350801476662    5.54195525707645    2.30505419954223
C         0.99804059504974    6.96173380858274    1.93639145974443
C         2.22705915345741    7.58766000513840    1.73385838532100
C         2.28300323431253    8.92399325542616    1.38392007746633
C         1.11411242315885    9.65015246201992    1.21922229694134
C        -0.11248412911698    9.03362584889354    1.40957505460744
C        -0.17270921611365    7.70009919279713    1.77052799244039
C         1.75972677986226    4.60827415517366    1.67740429822240
C         1.68769651054475    3.27140729088067    1.99929544964596
C         3.35267382149759    1.06428206952153    3.64568208928062
C        -0.83765722965231   -1.80154902057148    4.49142849777493
H        -2.07046912262410    1.26628394734666    4.71660324794862
H        -2.49922675031765    0.28839303543445    3.32208631080160
H        -1.96538518425776    1.96291263114058    3.09508080618426
H         2.70770868332829   -1.51758458733442    5.45867173981996
H         3.25851100484226   -1.87843943321799    3.82967729341228
H         1.86196376298511   -2.74138849231044    4.51584320567281
H        -0.69033206316980    3.44292309825622    4.40543537178085
H        -0.59090415195464    5.80350442927122    3.78658928909232
H         3.14162391651646    7.03106722048886    1.87649177298886
H         3.24082377070133    9.40157220585995    1.23870085848552
H         1.15930697150128   10.69300940809745    0.94232485053185
H        -1.02524560090478    9.59501257442179    1.27462883237553
H        -1.12909338901367    7.21278339369154    1.88913347794500
H         2.44797824865111    4.93613884294273    0.91321302125947
H         2.29466975766127    2.55692167051066    1.46406641562724
H         3.93611625870498    0.65709741314572    2.82160163044863
H         3.40586250333024    2.14845228986077    3.60166409348059
H         3.80082933216230    0.72138237089721    4.57628222883870
H        -1.80864545890634   -1.78636926574191    4.00465204895017
H        -0.38363372626485   -2.77633109431362    4.34098070289325
H        -0.99400488381180   -1.66192393801867    5.56132595963764
C         0.12939340608800    4.87264451717589   -1.23461034751641
O        -0.50731868360072    3.67884208545827   -0.78207338681551
C        -1.49952904418742    3.79665527018160    0.09035274899988
O        -1.87439138491064    4.83231945158853    0.58493913611977
C        -2.14583181940175    2.47501357552588    0.36122988438238
C        -3.49675699428830    2.45084904302470    0.69596285285089
C        -4.11643989844767    1.21382170549661    0.84520284737275
N        -3.47935484241945    0.07118077436572    0.70397995771583
C        -2.17259451650489    0.08677947911585    0.43877470679029
C        -1.54681651127763   -1.21743674997097    0.27286362827914
N        -0.35658589950217   -1.49548111516279    0.66591910984751
C         0.21641092211223   -2.72172433607304    0.26765833585963
C         0.99970320169246   -3.45324522552174    1.16025732214011
C         1.58812207094304   -4.63903515344190    0.76107995492570
C         1.42688294240394   -5.10103211601992   -0.53526964729603
C         0.66006493106909   -4.36631866649623   -1.43549266453100
C         0.47871020119560   -4.79978366213783   -2.84744288884010
O        -0.20199853593236   -4.20035841349480   -3.64958159368778
O         1.14153766065515   -5.91004103851858   -3.14598873934409
C         0.04818703361650   -3.18421682000175   -1.03294288105849
C        -1.45574269125732    1.27163111477305    0.24546367032593
H         1.15353169664249    4.60410041421613   -1.47857586741614
H        -0.38455953014791    5.23796459754022   -2.12499333694945
H         0.09688448976882    5.63696751676220   -0.45721882285403
H        -4.04135310737358    3.37464825616520    0.80783076569802
H        -5.16822362239519    1.13676822140011    1.08042862811776
H        -2.16178970841725   -1.97248848835935   -0.21231539190903
H         1.13022673826478   -3.09088670544149    2.16934317674839
H         2.18342964406941   -5.20527092788159    1.45955079677298
H         1.89594301737801   -6.01600220596901   -0.85850579408339
H         1.01464555664247   -6.17329607332285   -4.07516555207898
H        -0.51305133220862   -2.61890273718633   -1.76183868181022
H        -0.41620539190862    1.26204709793934   -0.05237707069603
Cl        2.20380576602974   -0.06327975731355    0.15204217113992
