83
 energy: -128.617598835581 gnorm: 0.000407294780 xtb: 6.4.1 (afa7bdf)
Ir       -0.03668910764814   -0.48575514788204    1.66212828777282
C        -1.45005076410294    0.88302504266420    4.41283342177504
C        -0.21563453836411    0.50737952061148    3.66606371553816
C         0.51288276910772   -0.70793090451290    3.85049536713926
C         1.70890013560804   -0.63846914637712    3.05162424758829
C         2.84911776520427   -1.60278739622067    3.09068646999758
C         1.75106973457376    0.65382078042573    2.43532763613853
C         0.53774000386828    1.34694357545214    2.76874017298005
C         0.25315589250997    2.75300447750097    2.44993813584886
C         0.01404944066057    3.67068456843646    3.47184152739515
C        -0.20341137262727    5.00232955937902    3.17868892242029
C        -0.19385390999295    5.45735139562114    1.86054317267955
C        -0.39375444730527    6.88211573574066    1.55625193577794
C         0.37626303487310    7.50863246416612    0.57822258368397
C         0.20264216955899    8.85181478967746    0.29926249981725
C        -0.74561624706979    9.58999523266749    0.98868604015422
C        -1.51798477096317    8.97662721461690    1.96172207406593
C        -1.34258310362201    7.63466408158020    2.24551053325597
C         0.02831833830837    4.53243080391513    0.84066135146348
C         0.25250285239304    3.20070136436146    1.12887128279122
C         2.91257323974557    1.22587866013169    1.70333854473406
C         0.18801801035301   -1.73054510247297    4.88497846729936
H        -1.18146874210965    1.15778485546689    5.43376802294777
H        -2.14339947797520    0.04717209819747    4.46871471301153
H        -1.94824775868732    1.72975951178098    3.94900478626684
H         3.43783113885268   -1.43648795634382    3.99352765439637
H         3.49358180930523   -1.46443507077825    2.22745328477874
H         2.49589669652770   -2.63114410659766    3.09062657274263
H         0.03306624648091    3.34543422651813    4.50021197678334
H        -0.35437888830115    5.70613625978442    3.98328947979506
H         1.13169140483928    6.94568007771209    0.04950081140716
H         0.81155106677434    9.32628247703441   -0.45670134759704
H        -0.88073223733935   10.63904330195618    0.76973266285262
H        -2.26042276495910    9.54779935318969    2.50009228486150
H        -1.95993315739473    7.16169735412824    2.99536191103854
H         0.01294546862105    4.85862197385257   -0.18839283352126
H         0.41548982133325    2.49410844090461    0.32811357350112
H         3.07331818494194    0.70982548321021    0.75763275351833
H         2.74925228023750    2.27977084300068    1.49347642375655
H         3.81284503305834    1.11317555059959    2.30613039875566
H        -0.83388380442714   -2.09074372536088    4.78941580827462
H         0.87658836840934   -2.56720950163888    4.83232489348381
H         0.28322647055746   -1.27267522433907    5.87021085706399
C         3.50531031453447   -7.11965706943987   -0.27893109827678
O         2.87566823028028   -6.67312239734173    0.90533767005305
C         2.03438018061996   -5.61950204380408    0.83918214357888
C         1.71508248874715   -4.91500791376436   -0.31233999162561
C         0.82838847093213   -3.85256615213677   -0.27162228119404
C         0.28266493939249   -3.44743202392933    0.93971633660878
N        -0.58471286476601   -2.34742969365255    0.97441591072609
C        -1.63616261302766   -2.35683079387546    0.21289789059731
C        -2.41288158392772   -1.16148132398364    0.13810918760632
C        -3.59803741902787   -1.02130978273878   -0.59342193936346
C        -4.23374350534745    0.19621879533045   -0.62091037947342
C        -3.67162001900611    1.28104635357315    0.07617118698429
C        -4.29086822806276    2.57934873030315    0.05897498069125
C        -3.89004408438138    3.79850565236344    0.56771275487691
C        -4.90573624386316    4.71571734227160    0.24012309064720
C        -5.85189789461917    4.00209919198094   -0.44071768888443
O        -5.49089271810735    2.72246004127018   -0.55598684420736
C        -2.49140531695129    1.05722897619133    0.79221329510561
N        -1.88808468496631   -0.11952813274822    0.83278645558979
C         0.59691027259497   -4.14219050806037    2.11346462234209
C         1.44213998496771   -5.23536829467231    2.07290591224328
O         1.77416408032875   -6.00880395473282    3.13318665635405
C         1.17339840349003   -5.74946483258590    4.38550520123404
H         2.77239502225426   -7.46249366319082   -1.01453838243984
H         4.12958109722041   -6.33580610779227   -0.71706982054140
H         4.13239050873854   -7.95551371573426    0.02452750769682
H         2.14979054101397   -5.19171807806132   -1.25828548782323
H         0.60335396120962   -3.30007660341228   -1.16962351102354
H        -1.91064726478440   -3.23657279659880   -0.35767294708792
H        -3.98965488839968   -1.86844804114808   -1.13267140316680
H        -5.14749267967640    0.33704615614325   -1.17565466819622
H        -2.98104996249948    4.01532700670403    1.09047105258600
H        -4.93412034697463    5.75939804892599    0.47315309370269
H        -6.78930810900938    4.29110370933765   -0.87371236009832
H        -2.03062783281585    1.86656995973180    1.33802431089402
H         0.12229957003819   -3.84051757758782    3.03105805491890
H         1.48410715771559   -4.77877223649593    4.78181426516699
H         0.08303870430817   -5.79612543533847    4.32275993006371
H         1.53290567011581   -6.53578252017452    5.04607204498797
Cl        0.75683237837566   -0.22227606240986   -0.56657883022540
