66
 energy: -91.634198540310 gnorm: 0.000514241784 xtb: 6.4.1 (afa7bdf)
Ir       -0.41143479368227   -1.09072360358289    1.23692260094824
C        -2.13240315150558    0.83213755219141    3.51944467553914
C        -0.88660088681351    0.13114540377746    3.09741881506495
C        -0.55136539950926   -1.22427339991864    3.46037938118628
C        -1.37446994740895   -2.10267623192928    4.34094968137035
C         0.82867944179996   -1.44616025687002    3.11059715767508
C         1.65984002285254   -2.59432973555663    3.57202952918952
C         1.29545721169122   -0.29120255345500    2.42475040083950
C         2.69543048828305    0.00336139648361    2.00744513340988
C         0.22518850578983    0.69324812973126    2.42022124889827
C         0.40637697840054    2.10451525842942    1.97430263769882
H        -2.04711955550290    1.08396954444775    4.57764087398734
H        -3.00891612199465    0.19927135517614    3.39891052830931
H        -2.27492707487069    1.75674934023438    2.96685562247602
H        -2.43543964476815   -1.92768541202614    4.18755379428550
H        -1.16333415264237   -3.15295284566400    4.16064704888726
H        -1.14171682025475   -1.88469593685222    5.38409786421617
H         1.06102259494757   -3.48986486834210    3.71310978022867
H         2.47211123414191   -2.80410507499725    2.88151103733346
H         2.09998728763736   -2.33430214380364    4.53594641363918
H         2.71484799820792    0.44962195223817    1.01525823641899
H         3.30683323756138   -0.89389073933758    2.00104954842103
H         3.13640033966746    0.71699033065875    2.70374851830288
H        -0.53384061509922    2.64760217136733    1.96684144836878
H         0.83297238476087    2.13501926235287    0.97345033280347
H         1.09626398348116    2.61205923265376    2.64882569439150
C         4.46376491377568   -1.14902181015350   -1.36338436380892
C         4.96369167628219   -2.38576912409183   -0.62190491902422
C         4.32788442895427   -3.69633611756393   -1.10739363499509
C         3.13828256112322   -4.17520864026909   -0.27124415934841
C         1.93501151457992   -3.24007190475476   -0.34384329699032
C         0.71906610470710   -3.83978658966475    0.37633387094146
N        -0.39101902068961   -2.92215050072950    0.33645173305371
C        -1.38642676692099   -3.17435811040114   -0.44454190869040
C        -2.43925821846088   -2.20814111061533   -0.51087379373894
C        -3.56032617095473   -2.30411047314072   -1.34069345218902
C        -4.48629400271297   -1.28842850683886   -1.34338108124448
C        -4.28052623359486   -0.16962682302263   -0.51742582620554
C        -5.22598066831441    0.91581943146439   -0.49513223539404
C        -5.26588823356885    2.09396488991433    0.22198933601942
C        -6.43845114288754    2.76224892361926   -0.17647264365513
C        -7.03308582347425    1.95421580742881   -1.10468385552507
O        -6.31481896294637    0.84635385855370   -1.30091793095132
C        -3.13168746189248   -0.14959118033538    0.28084843077494
N        -2.24823017862614   -1.13450255577751    0.29623138173101
H         4.69285172068193   -1.22874394001691   -2.42440649587886
H         4.95811492509977   -0.25815430559357   -0.98059373187260
H         3.39066087384375   -1.01932041430024   -1.25894104881868
H         6.04569869326102   -2.44467858017743   -0.76141371636917
H         4.78761875764386   -2.27027516994596    0.44917928634002
H         5.08262286714873   -4.48564189692172   -1.08138005029273
H         4.01665309756063   -3.58142399161539   -2.14732556210413
H         2.84493009511557   -5.16273314434036   -0.63538682575064
H         3.45576566621123   -4.29099849248765    0.76743577377136
H         2.17316798355230   -2.27916084238089    0.10993113958143
H         1.67313131390885   -3.05865520160526   -1.38713102536608
H         0.97780443231558   -4.03274483985012    1.41840642185956
H         0.44214793160298   -4.78559871024086   -0.10008460171028
H        -1.42966300033428   -4.07625566006244   -1.04599377001482
H        -3.67856238415316   -3.16810728143101   -1.97426945815066
H        -5.36118213374569   -1.33146447019595   -1.97200041000376
H        -4.55534237525719    2.44075429707701    0.94212847585251
H        -6.79293635136993    3.70940433835792    0.17358543712321
H        -7.93769102132475    2.06254961014012   -1.67011519818684
H        -2.93172471098278    0.69641633215418    0.91856663037321
Cl        0.32551175967778   -0.16913322758818   -0.84431092504803
