61
 energy: -97.224363191786 gnorm: 0.000323397691 xtb: 6.4.1 (afa7bdf)
Ir       -0.25190040715351   -0.70538220330443    1.39001382236098
C        -1.86359478382493    0.98302861138686    3.86356062852701
C        -0.58501092264344    0.45552087181559    3.31128822456721
C        -0.02062612023248   -0.82725494497137    3.61270481712311
C        -0.58057209547879   -1.80939348014209    4.58377719686733
C         1.30422073194558   -0.87628313192547    3.04531382938077
C         2.33175645468162   -1.90585268412077    3.36788307501859
C         1.51637283707188    0.32325498540721    2.31546675342030
C         2.80363085034120    0.76812944845299    1.71545503323245
C         0.32747522310962    1.15027874505334    2.45947825696357
C         0.24429282525101    2.57286538914648    2.08716296900869
C         0.07607352239178    3.52541891769817    3.09099732080247
C         0.03664416859074    4.86310044391286    2.74751862233518
F        -0.12322311763145    5.77821632943598    3.72653988260545
C         0.15504588242952    5.30166943863374    1.44079854581698
C         0.31775682748956    4.33119579198591    0.46757194139004
F         0.43178404519686    4.72187773373917   -0.81874559915632
C         0.36319310286101    2.98151575631780    0.76118759842009
H        -2.16234005648286    1.89798239180393    3.35975599492606
H        -1.72657773217884    1.20202710824813    4.92295933903727
H        -2.66317983131697    0.25013675278226    3.78293172088037
H        -0.24766887616473   -2.81815294013703    4.35522637336740
H        -0.23176326418387   -1.55820139212234    5.58611223629295
H        -1.66647779510391   -1.78311207143722    4.58780963889742
H         2.77905835738746   -1.65962888911273    4.33158533261971
H         1.89275617917741   -2.89714369648885    3.44286344439909
H         3.11958924005591   -1.92540899549900    2.62182981182195
H         3.33395390259975   -0.06323640877322    1.25844224615135
H         2.63994082225765    1.53496605386222    0.96424094473449
H         3.43543628364272    1.18491515197716    2.50087251660610
H        -0.00130970351263    3.24024047934780    4.12731422473640
H         0.12348726945658    6.34943527718469    1.19309228019753
H         0.46962259410550    2.26068987791500   -0.03496859079340
C         3.66164587181366   -6.48683357918379    1.19524025427045
C         2.57189749405838   -5.47332715666901    1.07230716654292
C         2.82499444975978   -4.20050056119109    0.56675859640195
C         1.82433402395098   -3.25360916218985    0.48562418830205
C         0.52725952853801   -3.57595485674279    0.88505693039269
N        -0.48391730390657   -2.61672124458106    0.76785511434446
C        -1.62739451112475   -2.93053018750992    0.24571585058963
C        -2.59679244307222   -1.87881350759412    0.14477186589390
C        -3.84920867094411   -1.99959989254847   -0.45769774672452
C        -4.66637119741374   -0.88669266622943   -0.53153133547214
C        -4.20642865034655    0.31860527572185   -0.01186102556915
C        -2.95197369451424    0.36817796805034    0.57154388605029
N        -2.16861551830295   -0.70174364741314    0.66409570463039
C         0.25790790400785   -4.85181701346405    1.38557012115873
C         1.27556660415688   -5.77749880575990    1.48560833987253
H         3.98919349898512   -6.55386644968815    2.23284960030776
H         4.51941522981368   -6.21764828738007    0.58508196918943
H         3.30814943389947   -7.47165889194880    0.89784386562460
H         3.81979807678140   -3.95085298611368    0.23057420445278
H         2.01559093144069   -2.27503084150815    0.07211135243552
H        -1.82605900959493   -3.92168519329440   -0.14406750764134
H        -4.15570236314814   -2.95072222197202   -0.86216458663479
H        -5.63978128909990   -0.94960399106498   -0.99167156919796
H        -4.80916561493652    1.21074428206019   -0.05645741972579
H        -2.56198612915236    1.29196994716552    0.97227437465680
H        -0.73772115137876   -5.09612499892864    1.72306191640646
H         1.06434819463378   -6.75704949326118    1.88700320843636
Cl        0.35080289088257   -0.18416555495158   -0.86041775155010
