71
 energy: -114.059372388688 gnorm: 0.000519370360 xtb: 6.4.1 (afa7bdf)
Ir       -0.47798302664190   -0.74247987842039    1.44240175041114
C        -1.96616981906159    1.04091846875601    3.99839955235963
C        -0.74638453975001    0.40956781889312    3.42309872130195
C        -0.34583456212939   -0.95225265448717    3.65820350666085
C        -1.04823587518136   -1.89897768075555    4.57183245481743
C         0.98397041039964   -1.11850851534200    3.13446663654881
C         1.89681199544587   -2.25821546056925    3.42349781751123
C         1.34120596937803    0.07607839954940    2.45077202113746
C         2.69641919120792    0.38792710081279    1.91634624313550
C         0.26250934507249    1.03729014582311    2.64211940226459
C         0.37283877135669    2.47654969923132    2.35401629024069
C         0.26598554925730    3.38806846230020    3.40364245888086
C         0.42403989757381    4.73532958022998    3.14158078436779
F         0.32679452652890    5.60905713411364    4.16548218591506
C         0.67947706338256    5.22431513710056    1.87296420634180
C         0.77395112231162    4.29456967622412    0.85199475313596
F         1.01726096426573    4.73587838906666   -0.39922738484729
C         0.62824984383736    2.93707723597930    1.06383210057097
H        -2.13287839721050    2.03091336369244    3.58468247141488
H        -1.84100176170808    1.12690729042798    5.07822403677718
H        -2.84813824739687    0.42990917346940    3.81961587381280
H        -0.78835951067805   -2.92904050822475    4.34473859338230
H        -0.74912606769881   -1.69314205101601    5.60024010022772
H        -2.12608116883912   -1.78013805482836    4.50376819272785
H         2.42553519598176   -2.04785087682847    4.35394624597841
H         1.35129704016440   -3.18928335923551    3.54786555615734
H         2.63489378142715   -2.38309430265445    2.63663275504232
H         3.08707511170997   -0.44119802783688    1.33160148236989
H         2.67732798419783    1.27745676526434    1.29409097124356
H         3.37592188541961    0.56103426435985    2.75159195567209
H         0.08980382404340    3.06112172435683    4.41515457955408
H         0.80002490562538    6.27862020209950    1.68819584537692
H         0.68731929764981    2.25299599737957    0.23072361037115
C        -7.90439852879615    4.67715412066973    0.00348939790222
C        -7.30619515684127    3.27974734258038   -0.01870628362829
O        -5.93425746051256    3.38858673643676    0.34777543416971
C        -5.17075567604254    2.29384855874706    0.40441890795585
C        -3.81332353908375    2.52271832713229    0.75592743439906
C        -2.93001639095225    1.49465202732012    0.87338732328850
C        -3.33278423851613    0.16237035173580    0.63461929503282
N        -2.45599852526824   -0.85634353023572    0.75602380914173
C        -2.82515246870142   -2.09226532551906    0.37761592787099
C        -1.76403826000351   -3.04884786047643    0.38443007394449
N        -0.59543756926196   -2.62900290862400    0.75415078952765
C         0.50725561383199   -3.49401387432713    0.72798101220775
C         0.41810757950771   -4.78267990910508    1.25653858249854
C         1.51877582077782   -5.61790295736208    1.21493569374150
C         2.70363611515391   -5.18639165158567    0.63758427444408
C         2.79022048147645   -3.90764136697075    0.10688084686899
C         1.70327759491465   -3.05496702110123    0.16072307264420
C        -4.13581064572558   -2.39180741019889   -0.04343808357023
C        -5.06599622372720   -1.39378645446089   -0.08663752877199
C        -4.68327940377061   -0.07058850261501    0.23033675936012
C        -5.58331231384771    1.00207967217771    0.14067292754492
H        -7.81265838347421    5.10800082343253    0.99655030815304
H        -8.95480454689126    4.62878424209387   -0.26717737324843
H        -7.38477457624989    5.31840977398816   -0.70318283900513
H        -7.38465248443404    2.84717425551110   -1.02372080566263
H        -7.82691924656269    2.63001454118986    0.69533614837038
H        -3.50799650046032    3.54364979242724    0.91844204944089
H        -1.89476728235297    1.69007026458867    1.10127785152980
H        -1.91848506282277   -4.05952994447713    0.02482674512268
H        -0.50088450682704   -5.11015520680607    1.71862396919379
H         1.45193186614510   -6.61013842370780    1.63330992297060
H         3.55759821540702   -5.84452115513208    0.60286847662927
H         3.70832656507486   -3.57288878711495   -0.35034725681248
H         1.74863464815981   -2.06342542699708   -0.26304956517091
H        -4.37826419867999   -3.40476238994374   -0.31934831436211
H        -6.08388373901745   -1.59307491587901   -0.38373367461687
H        -6.59601472107218    0.78649827677615   -0.15862951676997
Cl        0.03126544951258   -0.01763874304700   -0.77125856320866
