68
 energy: -99.515340082442 gnorm: 0.000492457565 xtb: 6.4.1 (afa7bdf)
Ir       -0.48672336903924   -0.88591136101807    1.56143712049301
C        -1.92891235231717    1.04929595632598    4.00370161903578
C        -0.72455645567708    0.39417762977355    3.41656338372945
C        -0.32144782042352   -0.94290766166014    3.77574735934686
C        -1.01363968228190   -1.80337099328862    4.77787084728030
C         1.00126682001811   -1.16622093565173    3.25541053451860
C         1.87724933959814   -2.31480335372537    3.61882917083969
C         1.35647570143313   -0.03382539303175    2.47567821721637
C         2.68488080596940    0.22063551713149    1.84637253448503
C         0.28062478470501    0.94730612025986    2.57274218388806
C         0.42938893180877    2.36402252210959    2.08645935130220
C        -0.72666941819368    2.86993741675877    1.21672674665633
C        -0.41182078693004    4.27278354272999    0.70469099035870
C        -0.17922073543224    5.22880207307099    1.87244853512203
C         0.95233716473668    4.72145216980223    2.76295659111447
C         0.64931559071291    3.31537493299874    3.27380514315010
H        -2.79617542142922    0.39437046898991    3.95401378331676
H        -2.16398859682774    1.98821362826139    3.51637688422719
H        -1.72923491347544    1.25076242893291    5.05693366599901
H        -0.74447744994531   -2.84787015473044    4.64996406749410
H        -0.71422760507848   -1.49751495604832    5.78104090592098
H        -2.09306359358327   -1.70506490525830    4.70398978822057
H         1.30514498816748   -3.23122665834422    3.73696988833715
H         2.64900228528487   -2.48163852810293    2.87355709359697
H         2.36297468535085   -2.09374982393452    4.56986462694226
H         3.28294491079961   -0.68528054434210    1.81836182272864
H         2.56769709940634    0.59179892410919    0.83001887953601
H         3.22411857884301    0.97167078472359    2.42375179607277
H         1.32775064182984    2.40080557699014    1.46300142902507
H        -1.65231540050593    2.91338983283314    1.79057896290059
H        -0.86750754085789    2.18875687235274    0.37619236708884
H        -1.23732027301304    4.63371049282571    0.08768675133880
H         0.48127725835986    4.24186081572058    0.07654884258146
H        -1.09549103093649    5.31456892528319    2.46177013662677
H         0.06502722400647    6.22367253639928    1.49465901167253
H         1.09078114255795    5.39679867233985    3.60994080217068
H         1.88340544761263    4.71106543541090    2.19127751871493
H        -0.24280153974199    3.34392185206734    3.89970286193726
H         1.47858795502294    2.95669736649743    3.88661639255820
C        -7.17991493405169   -0.67150137855135   -0.78302465941579
O        -6.15969018648616   -1.66132032428567   -0.77907248440561
C        -4.98320974610548   -1.39176665877269   -0.22843808973137
C        -4.61565229142043   -0.17761818156597    0.37383712219927
C        -3.35582612408101   -0.04599243358887    0.91837483270862
N        -2.45085470102516   -1.02060763916994    0.91661984364669
C        -2.77842473155688   -2.19497167435872    0.31574448634681
C        -1.70870724969785   -3.15173548246180    0.30534049949728
N        -0.58630051747135   -2.77651166412835    0.82859393402343
C         0.50672386129380   -3.65305153464411    0.84258948111112
C         1.74755940807773   -3.20808621545088    0.38693934527004
C         2.83067086507206   -4.06487140195377    0.37883384807622
C         2.67903351385710   -5.36191241540964    0.84914072875278
Br        4.18888980238941   -6.54951898927600    0.85353588770318
C         1.45425457322043   -5.81292090950253    1.31956970977235
C         0.36617143762290   -4.96133148586368    1.30715702825558
C        -4.02166786773014   -2.41161505213292   -0.25352893939003
H        -7.46256638686956   -0.39674496905202    0.23534384837489
H        -6.86585274283114    0.21414053201969   -1.33896727125925
H        -8.02737849136796   -1.13373625564152   -1.28412870269016
H        -5.29389499421118    0.65739985954003    0.42073369096555
H        -3.06006586427073    0.88534544818447    1.37646029540080
H        -1.82775280881147   -4.12094365333347   -0.16480557677333
H         1.83894204699195   -2.20179747384271    0.00814274837199
H         3.78646944220785   -3.73113027304525    0.00863808255197
H         1.35261379203395   -6.82025903439810    1.68956637093462
H        -0.58683710937991   -5.30027436495544    1.68271152413361
H        -4.25852707653178   -3.35088808761721   -0.72486138225170
Cl       -0.00603028938942   -0.21850751231834   -0.68496280971190
