61
 energy: -109.899495276724 gnorm: 0.000753740942 xtb: 6.4.1 (afa7bdf)
Ir       -0.31638673958365   -1.26039758653045    1.42441070073651
C        -2.04385291935700   -0.07568034649397    4.05767281133328
C        -0.72135449163571   -0.35850201346649    3.43407444480685
C         0.04633946545118   -1.54931719622033    3.61822462450444
C        -0.31837275035197   -2.69231237072551    4.49875034031563
C         1.31811799550192   -1.36979965103926    2.96111651226343
C         2.50486486642483   -2.26168236252095    3.10404638035137
C         1.34365999036320   -0.06321201643424    2.39017478881597
C         2.53051995723699    0.59238094300875    1.78244642999292
C         0.05864726673910    0.54934550471584    2.62767638570511
C        -0.25077523260465    1.95846529575222    2.34349783150821
C        -0.67530567300749    2.80300744070661    3.36769529395026
C        -0.91180902327270    4.13506767076599    3.08372021798957
F        -1.31684846421426    4.94566499884680    4.08160688247287
C        -0.74875464233138    4.66987612983356    1.81787489875633
C        -0.32799899654946    3.80535284533636    0.82184545196630
F        -0.16163709964309    4.28855870334032   -0.42498794124592
C        -0.07652137790522    2.46688322076768    1.05644799355588
H        -2.53920527269738    0.75808145706927    3.56870616377526
H        -1.89533942317343    0.17632707273233    5.10816022054510
H        -2.69211680664520   -0.94786054378155    4.02019126944421
H         0.11534040398425   -3.62115106647070    4.13733031524287
H         0.07465782346826   -2.50520744522131    5.49865572575829
H        -1.39591490243034   -2.80382601479243    4.57556292062004
H         3.07556365213467   -1.95229319542247    3.98064379336821
H         2.20997844059241   -3.29771505700091    3.24258957281231
H         3.15230005298251   -2.19061482723033    2.23499765402708
H         2.70934306194998    0.21956544588056    0.77352023653362
H         2.38323639759851    1.66777050636090    1.72391484506571
H         3.41428564901099    0.37800978286096    2.38106724481070
H        -0.79310128188642    2.44756866197854    4.37760436294610
H        -0.93703818361054    5.71146508588767    1.61793945451713
H         0.23670023664536    1.82840017015159    0.24492108494815
F         4.10592562754002   -7.33971409718242    0.69694885764142
C         3.11481785412237   -7.32137125361839    1.60122766563167
F         3.71203681976705   -7.19644072585829    2.80729018389819
F         2.56112469039968   -8.54549288172048    1.58941160778884
C         2.11371305757087   -6.22640322752265    1.35821088392668
C         0.81635987128431   -6.37085573114726    1.83752599254514
C        -0.10395018309321   -5.35876508412110    1.63678299282352
C         0.28038694338180   -4.19469427871521    0.97225979890989
N        -0.64085168256861   -3.15337295136180    0.76955009070144
C        -1.74329255795053   -3.37512423585721    0.12839646112030
C        -2.62190995630250   -2.25433067185138   -0.04537562278443
C        -3.81519938756534   -2.28457247493777   -0.76701879968145
C        -4.55259256480997   -1.12058923385268   -0.88941072844395
C        -4.07388080695944    0.04134908306367   -0.29378757211288
C        -2.88054672047792    0.00047139925865    0.40777570097465
N        -2.17205561827370   -1.11649053874098    0.54112351867494
C         1.58536391347544   -4.04988243728582    0.50507814405031
C         2.50009079658578   -5.06837539780342    0.69132584498762
H         0.52937087387541   -7.27332753708451    2.35444330495310
H        -1.11131145557074   -5.46127703731761    2.00830632030757
H        -1.97528026139305   -4.34691036958338   -0.29209014425163
H        -4.13988262058093   -3.20666225272724   -1.22190524081221
H        -5.47858942059756   -1.11293225137770   -1.44234391371976
H        -4.61622073003526    0.96986331227841   -0.36816797729461
H        -2.47865639481801    0.88922319792223    0.87238362143667
H         1.86001564306078   -3.14981494621842   -0.02227834369153
H         3.50758639384421   -4.96984563825744    0.31902291972890
Cl        0.52258689684505   -0.78480998097288   -0.74721947949598
