75
 energy: -133.988253205449 gnorm: 0.000606040966 xtb: 6.4.1 (afa7bdf)
Ir       -0.88787415930781   -0.57933844264401    1.49847991228473
C        -2.38706737835723    1.06581597818010    4.10618628680670
C        -1.15467605969773    0.49935625704546    3.49387456879636
C        -0.68746223738816   -0.84277953677023    3.70046860770750
C        -1.32357979648399   -1.84195828714956    4.60366420264485
C         0.63288425705381   -0.94474215428646    3.13473456451242
C         1.59972452759314   -2.04643486812008    3.38488062531093
C         0.93051408926132    0.27929521783935    2.47392789872625
C         2.25362298559253    0.63841004727294    1.89519068737882
C        -0.18729065696955    1.18549492429686    2.69561145926785
C        -0.14846725068473    2.63179550543594    2.42264056681853
C        -0.31161150999397    3.53127107622505    3.47529387571326
C        -0.23201164901744    4.88704854252787    3.21811921248165
F        -0.38757812222004    5.74865347999618    4.24305066060698
C        -0.00366392481134    5.39502216416543    1.95153517927349
C         0.15297798331358    4.47659118733611    0.92786356619813
F         0.37024426523185    4.93390176329283   -0.32109320820770
C         0.08872346778483    3.11210390123615    1.13557774707591
H        -2.61571199850754    2.04805872762223    3.70514526486632
H        -2.23456643058413    1.15103489333338    5.18258115312143
H        -3.24114889472029    0.41093100875037    3.94956491549497
H        -1.01774712675500   -2.85235231121403    4.34707272281416
H        -1.00974322475815   -1.64579003822515    5.62953890605707
H        -2.40725236371274   -1.77526615289115    4.56430270450505
H         2.08176346407447   -1.86389989480556    4.34616848263304
H         1.10947424706653   -3.01472928057244    3.43781120408629
H         2.37104476430635   -2.07617578969891    2.62187307999682
H         2.58918968594440   -0.11890845088338    1.18961644414807
H         2.21352727262241    1.59599856758939    1.38591729332850
H         2.98782758442131    0.69974599392446    2.69874136096427
H        -0.46973660575258    3.19126031971125    4.48529037812708
H         0.05398121363150    6.45532852794590    1.77051093419654
H         0.19926874058521    2.43828320911574    0.30023535435012
C        -7.45366939804518    5.63510758944865    0.42836683075506
C        -6.19173344646930    4.81690274927166    0.65114397827139
O        -6.50776808764282    3.45806499921600    0.36116042081234
C        -5.58231520511131    2.50293495023358    0.46933141765811
C        -4.24088692558912    2.71945871365129    0.86906977010203
C        -3.36460732132068    1.67707056471202    0.97538568759157
C        -3.75210132657897    0.35619712144928    0.67756984143799
N        -2.87625292069802   -0.66552503783443    0.78636898299667
C        -3.23338582604675   -1.88309742203207    0.34820580437533
C        -2.19065209279866   -2.85665116661481    0.35477460569630
N        -1.01778684450233   -2.48970925554014    0.76816410617397
C         0.01462144459346   -3.43730653605840    0.82969878972430
C        -0.25576701370688   -4.68570956885210    1.39358290031896
C         0.73573279460686   -5.64379839273807    1.49788930043648
C         0.43147812433828   -6.96503681404198    2.13938552381947
F        -0.86894355277125   -7.29736572591464    2.06023755896760
F         1.12022271917041   -7.98168832383139    1.59742311850322
F         0.73081429288473   -6.97335990205486    3.45826363451909
C         2.02631089799591   -5.37043138282245    1.04443639598765
C         2.29923748762288   -4.14385002432134    0.48770085808230
C         1.31570096622342   -3.15241149854409    0.35981962273875
O         1.68928982043547   -2.00862261584204   -0.19761400300972
C        -4.53180203951402   -2.16854675927459   -0.12577377765527
C        -5.46300845233034   -1.17348320870094   -0.16006812709737
C        -5.09210208200053    0.13792775341924    0.22115029984607
C        -5.97865347034296    1.21261892329172    0.14679914946486
H        -8.24319399758522    5.29396942897433    1.09199357133048
H        -7.79153468413066    5.52758059168728   -0.59859919106547
H        -7.24973954999018    6.68290161288275    0.62710623065821
H        -5.39241392261601    5.16231036802918   -0.01586308111955
H        -5.85909454438500    4.90632710366820    1.69240818591695
H        -3.89644529641470    3.71743253964522    1.08618622586819
H        -2.33893574968106    1.86768451952182    1.24586579372621
H        -2.36756087787626   -3.85422556553644   -0.03086286468157
H        -1.24474688865335   -4.88945211728566    1.77588839199768
H         2.79762588225906   -6.11935380973209    1.12698955788491
H         3.28667906353915   -3.91163934713187    0.12381825430440
H         0.95905034816174   -1.38863452055229   -0.43478043755090
H        -4.76029832667023   -3.17139136321930   -0.44681175735657
H        -6.47132774743440   -1.35947465605026   -0.49493213347064
H        -6.99094499332223    1.04989707680255   -0.18638860379593
Cl       -0.42454941636922    0.09685832301949   -0.75902444526398
