70
 energy: -105.397381654943 gnorm: 0.000799832873 xtb: 6.4.1 (afa7bdf)
Ir       -0.19851789689398   -0.88403473621133    1.49723046467652
C        -2.01473222886775    0.00157571565290    4.19507608920742
C        -0.67236609617082   -0.15118346413506    3.56766808486278
C         0.16383849693661   -1.30206987710092    3.67972605984501
C        -0.14523786406860   -2.50698568112179    4.50017357401132
C         1.42294186457388   -1.00446124809540    3.04073746840869
C         2.67460352648148   -1.81408290532959    3.13372073853116
C         1.36901120337493    0.34056437125019    2.56270753075598
C         2.51900751318150    1.10651200379032    2.01172099263831
C         0.05363274614586    0.85667829946833    2.83594116120541
C        -0.34593940297654    2.25650920046356    2.63896279178969
C        -0.83068358214768    3.00550420999599    3.70982926875921
C        -1.16094362887920    4.33178817586233    3.50587564035449
F        -1.62593825823832    5.05015325865956    4.54923213149745
C        -1.03491813475748    4.95350923841021    2.27625898453062
C        -0.55115185209346    4.18337854279860    1.23261642547896
F        -0.41983023960209    4.75410874133489    0.01739757016284
C        -0.20580682813925    2.85479109548409    1.38650922172997
H        -2.55912193969409    0.83662906603544    3.76348421536042
H        -1.89328983553501    0.18189925553219    5.26371712071091
H        -2.60490127746654   -0.90468619933040    4.08187297643098
H         0.43119398547276   -3.36950655248204    4.17901310858890
H         0.11055460016633   -2.30077625518286    5.54006219272868
H        -1.20287028503028   -2.75192656629841    4.45768741010199
H         3.26671193634556   -1.45531558320042    3.97670624675700
H         2.46188591263425   -2.86581613379800    3.29838925920564
H         3.27294459860513   -1.70953266111494    2.23288917052578
H         2.71829219036127    0.82236730651793    0.97827281751242
H         2.31196524003375    2.17410132798490    2.03401726998738
H         3.41364411730087    0.89890613531021    2.59671911445982
H        -0.92515285498625    2.58111104283677    4.69546645602637
H        -1.29483692668538    5.98969644640856    2.13898101337259
H         0.15107412640639    2.28927209083265    0.53948648845785
C         4.86391112679234   -3.66142408474138   -3.45062773392303
C         3.80577874973839   -4.07965502536267   -2.43504029779266
C         2.56454380785008   -3.19325996814924   -2.52357631260658
C         1.42188844059767   -3.63465492115925   -1.60717679268886
C         1.75897111880883   -3.47695553122022   -0.12682351248907
C         0.55325383606466   -3.78489623853320    0.77603170701673
N        -0.43328223635145   -2.73781215980667    0.68756903654711
C        -1.48537938314115   -2.91943217593381   -0.03066365828286
C        -2.41834278807707   -1.82602891493812   -0.13085934410679
C        -3.57149011920552   -1.84809856496399   -0.89272774054421
C        -4.39871935834782   -0.71509867083962   -0.92952013651412
O        -5.49436364331166   -0.79601620785405   -1.67212540306563
C        -6.37325940833421    0.31757875615139   -1.75723545219440
C        -3.99493145483428    0.40136013576044   -0.18008107933024
C        -2.82829636250964    0.33854441253995    0.55187158732708
N        -2.05430436352793   -0.74088382488820    0.59819328626765
H         4.47918612912536   -3.74695785101839   -4.46504011184083
H         5.16335987867324   -2.62810660390294   -3.28714188777936
H         5.74710927989210   -4.29115802674809   -3.36702853511337
H         4.23777732599406   -4.02063431176465   -1.43507095288673
H         3.52327626195937   -5.11890216258888   -2.61885691041669
H         2.83545280319610   -2.16283176672938   -2.28509509279598
H         2.20373747940615   -3.20377843581805   -3.55499836814539
H         1.17055448699311   -4.67568572477246   -1.82191520133181
H         0.55258552761630   -3.01559614798430   -1.84024896275463
H         2.56294078575364   -4.15768607852885    0.14816767063461
H         2.08841139650478   -2.45334555496120    0.05585040891503
H         0.11438428264523   -4.74239708705756    0.48043013898197
H         0.88960015557061   -3.84746529101530    1.81121436954188
H        -1.67945363311160   -3.85469066146657   -0.54441831233075
H        -3.84051626393492   -2.71786396367905   -1.46878749513936
H        -5.87067391911379    1.18090038514583   -2.19863356668618
H        -6.77397410532691    0.57720864775232   -0.77515978907637
H        -7.18309289850664   -0.00400863505599   -2.40815562015379
H        -4.57293226271522    1.30969234883942   -0.16356268941610
H        -2.50115246253564    1.19481752319383    1.12340513549500
Cl        0.58458486391820   -0.15437027914783   -0.62298343998464
