72
 energy: -115.463801221019 gnorm: 0.000746943304 xtb: 6.4.1 (afa7bdf)
Ir       -0.55176807672692   -0.63165715762277    1.59647741921918
C        -1.79128847999509    1.72944041334558    3.95879772894936
C        -0.75207835497917    0.80304628545841    3.43249946614261
C        -0.70770701516852   -0.59106734344766    3.83010512400211
C        -1.69254859361673   -1.23692812695608    4.74203426273869
C         0.57545399926855   -1.11445494027359    3.48329911788518
C         1.15099822001534   -2.38986764157354    3.99044799779944
C         1.25547590948122   -0.11040008070664    2.71699819479973
C         2.68048963029837   -0.16839880742770    2.28184540539169
C         0.44394132312857    1.10293846271215    2.73471718077801
C         0.99799636367793    2.44166131207813    2.33271318260130
C         0.12818522857881    3.26017461088948    1.37449328634962
C         0.85379814493154    4.54740749641603    0.99245897717505
C         1.17404968842148    5.37220622465918    2.23635142372509
C         2.02011980242269    4.55832639839016    3.21153794627312
C         1.30503136279163    3.26598851404991    3.59569214561687
H        -2.78661171960886    1.30318484561523    3.86544170897123
H        -1.77421445596695    2.69190548623215    3.46322582092750
H        -1.59566009319861    1.87887077429515    5.02203667650384
H        -1.63273091550986   -2.31963920473780    4.68533839190157
H        -1.47358706566762   -0.93869609144033    5.76810422834814
H        -2.70731409930650   -0.92447470334580    4.51226719169528
H         0.39605799161782   -3.16611792100438    4.07809983640036
H         1.95958926784621   -2.75042012907296    3.36184822246964
H         1.55526387257813   -2.20232779489939    4.98622483504278
H         3.04432619288988   -1.19123928111101    2.26678477641188
H         2.80302543012445    0.26209509845861    1.29082468237892
H         3.29202565989713    0.40425084977899    2.97934925123206
H         1.94571678574962    2.26115828326713    1.81744505406094
H        -0.82271427397499    3.51683768359412    1.84081421203578
H        -0.07403913745133    2.66742503112827    0.48233386170561
H         0.23412559100375    5.13207624103821    0.30977315151983
H         1.78103903407540    4.30455003608918    0.46867901010374
H         0.24376919650304    5.67298405921641    2.72406816645223
H         1.70774057397287    6.28136484903352    1.95252413061889
H         2.21977353587686    5.14570214693066    4.11000942743282
H         2.98107530612455    4.32452540049323    2.74756288646508
H         0.37744980656287    3.50928297257679    4.11305746417164
H         1.92960367788228    2.68432500392872    4.27610202525678
C        -3.70165384961385    2.92771399572381   -0.12468827603517
S        -2.88271122770086    1.73902238053995    0.97817038372967
C        -3.40077919643189    0.17165073870333    0.45256757877341
N        -2.51532972327655   -0.80940275724909    0.68360252432679
C        -2.74280268675173   -2.04454501520189    0.17796752743235
C        -1.65359738813654   -2.95473187525880    0.33280525405620
N        -0.56575363028297   -2.50594565100360    0.87750370591077
C         0.55004688088345   -3.35751914295809    0.95426477383832
C         0.43972852730417   -4.62089289109960    1.53518897126063
C         1.54324747675503   -5.45106113358858    1.59395084443992
C         2.75208425891261   -5.02612502505366    1.05444022751614
C         3.95958771366349   -5.91753982820012    1.14223978908633
F         4.82686977221336   -5.72701900603961    0.13566874120260
F         4.65691736858946   -5.70389134690526    2.28006062846169
F         3.64805309759387   -7.22341765207082    1.13884514810034
C         2.86573463412027   -3.76985627566747    0.46747644706505
C         1.76677269429257   -2.93349211887013    0.42240261541882
C        -3.90792536918156   -2.36526707556100   -0.52131464481161
C        -4.87855865710367   -1.39692778553659   -0.66292841445680
C        -4.63867735550241   -0.11137167790206   -0.16764143283019
C        -5.69898800454924    0.81821717738811   -0.23626738129837
N        -6.61785220563930    1.50381750696527   -0.27862520651133
H        -3.04495403483672    3.79330263671865   -0.13417664189694
H        -3.77290622760525    2.51275491961642   -1.12441812632052
H        -4.67836057627651    3.20463593456539    0.25669978619124
H        -1.71347931898561   -3.95967769787203   -0.06841566396305
H        -0.50038482951949   -4.94322600315349    1.95459258742744
H         1.46664042373765   -6.42700047363869    2.04749399026650
H         3.80687842362860   -3.45521511749622    0.04422778782154
H         1.82823814471444   -1.96413580358519   -0.04677025420228
H        -4.03868094857544   -3.35347674154768   -0.92900511132054
H        -5.81870248731431   -1.61058525676941   -1.14783542823503
Cl        0.09507798696924    0.10348380621115   -0.56101160208422
