80
 energy: -122.839279439195 gnorm: 0.000519207550 xtb: 6.4.1 (afa7bdf)
Ir       -0.60550537114617   -1.11367993281156    1.67983448184112
C        -1.86872002417517    1.15144202928871    3.92620203205468
C        -0.70847200187016    0.42137774180554    3.33934109636307
C        -0.23950879531825   -0.83576118230540    3.87258071776871
C        -0.83327857986730   -1.52022679999823    5.05684672166243
C         1.04798379378733   -1.11340627837357    3.29217567624163
C         2.04327987129288   -2.10915778942325    3.77810912500249
C         1.30026939830976   -0.12016704790117    2.30884108130711
C         2.57303576253900    0.03733368690869    1.54992055240980
C         0.20968226886361    0.84868924947167    2.33528424847958
C         0.30237155050225    2.17715006927894    1.63424757468797
C        -0.92871184751753    2.57339307610187    0.81287750232305
C        -0.65395240808195    3.88074732861908    0.07402615134875
C        -0.30837680920002    4.99121030822134    1.06350579093620
C         0.89663493961528    4.59713184009752    1.91390535067385
C         0.63541972885325    3.28459801242652    2.64779881453292
H        -2.73870245715587    0.50459647849259    4.02031089089887
H        -2.13763677432498    2.02763652499163    3.34785443150932
H        -1.59261047965256    1.47635505727094    4.93027525090233
H        -0.54305674536716   -2.56574505944908    5.09809915108082
H        -0.47937840733668   -1.03135986038458    5.96536118500008
H        -1.91771831729030   -1.45891177140969    5.04284497619948
H         1.60644659545951   -2.78287748628234    4.50733590515351
H         2.46220497684626   -2.69270716227813    2.96159016267910
H         2.86044254915362   -1.56966967243012    4.25792749749409
H         3.17556478054513   -0.86333416997968    1.61655571106053
H         2.37409672530297    0.24439949270863    0.50037923278246
H         3.14141164342054    0.87159942476458    1.96152984474626
H         1.13638781687478    2.11050241907218    0.92948140556858
H        -1.79558783184030    2.72186227104326    1.45723183142732
H        -1.15264498003456    1.78164985414779    0.09606795048728
H        -1.53167917460436    4.16393243599963   -0.51046666243388
H         0.17584041677536    3.74079374148667   -0.62226292913436
H        -1.16624015236614    5.18073144774725    1.71321171455330
H        -0.09296753486019    5.91511766186919    0.52328769180414
H         1.11303512325870    5.38490670277077    2.63829359619613
H         1.77222156524103    4.48841762852316    1.26983888123889
H        -0.19559466968873    3.41725673283395    3.34079931511501
H         1.51575715752433    3.00231823866257    3.22800956781500
C        -8.12413228895190   -3.12837563163570   -1.37885857356881
O        -6.82500707427829   -2.89160734780609   -0.83597192138350
C        -6.54165056030978   -1.65247583326988   -0.45871839070183
O        -7.30099308324370   -0.71612938322636   -0.53972338339547
C        -5.15667492142298   -1.53924243246028    0.09635571978166
C        -4.72169960934682   -0.30632828971755    0.59191152309568
C        -3.44344759320118   -0.19538856112515    1.09991103964158
N        -2.59389209205413   -1.22208702607437    1.14543666831979
C        -3.00117018071469   -2.41865019377510    0.65235078881267
C        -1.98444245862567   -3.42891753849324    0.67066437094374
N        -0.83451452908784   -3.08797967172012    1.15290123841515
C         0.25829866958195   -3.95788103107861    1.00651681327041
C         0.84421237268295   -4.54804877219824    2.12616737362146
C         1.94413281125253   -5.36309866210245    1.99521331185514
C         2.52389763385554   -5.58095036572976    0.73777855049491
O         3.61729493072299   -6.36401240564961    0.71836931907303
C         4.26419369028310   -6.62346126835076   -0.51439335846557
C         1.94025617973955   -4.99374602838480   -0.38365217772912
C         0.79900989865201   -4.20980967750107   -0.26224510803765
C         0.17124976612738   -3.66576300905585   -1.50286313035285
O        -1.02479615690671   -3.63148672602799   -1.70312809774581
O         1.08366034537787   -3.30289332639733   -2.39374829786133
C         0.60209064116490   -2.76244757750191   -3.62096697809354
C        -4.27753508590744   -2.61037792012840    0.12571582462058
H        -8.88715072689904   -2.68852025608064   -0.73512522966196
H        -8.23383682618898   -4.20772116769802   -1.43155347663781
H        -8.19999500051670   -2.68529059722956   -2.37289026124975
H        -5.38850576004249    0.54090092114798    0.57086524013409
H        -3.08552577275321    0.74831833197257    1.48029348121190
H        -2.17540228092040   -4.41962522351596    0.27945365576605
H         0.39668673091047   -4.38518625852946    3.09259368659401
H         2.38681751242499   -5.84355315135416    2.85232838618929
H         5.11691654404991   -7.25202523871816   -0.26653609458430
H         3.60528823860809   -7.15853791136201   -1.20296375932482
H         4.61488133644119   -5.69891947918570   -0.97983324198840
H         2.34661790202525   -5.14842784077977   -1.36908231715616
H         1.47951729476839   -2.58348438116511   -4.23560788785071
H        -0.07828302307943   -3.46625439345096   -4.10380197590569
H         0.07060496444758   -1.82906773643932   -3.42583993775045
H        -4.55984723601590   -3.57398431506341   -0.26428677833204
Cl       -0.12778050510710   -0.78430986475549   -0.62628913382692
