76
 energy: -122.766610224958 gnorm: 0.000184022742 xtb: 6.4.1 (afa7bdf)
Ir       -0.28360467193887   -0.62057323136234    1.57426801831586
C        -1.83079653178952    0.98462810561069    4.12866501822242
C        -0.57009142209135    0.46087221123989    3.53330956816671
C        -0.00631673728527   -0.83187924786193    3.77823700299623
C         1.30078812755309   -0.87255364772868    3.16564585639619
C         2.32761899169220   -1.92262028983385    3.41734271560468
C         1.51145382782545    0.36286201121652    2.49148250930541
C         0.33080124076172    1.18654744660192    2.68627073356520
C         0.24951097285828    2.62230525290691    2.36407519204002
C         0.17941182676245    3.55409137821875    3.39829349411958
C         0.17270829216916    4.90693915383709    3.12007793112159
C         0.23493999019134    5.36800691654281    1.80602924098228
C         0.26007120598169    6.80787290688462    1.50800687462177
C         1.10784198319927    7.30590761107989    0.52024924176017
C         1.14024590107004    8.65874619311995    0.23681074065237
C         0.32220876974407    9.53549196398198    0.93087579187459
C        -0.52425551168042    9.05119569811357    1.91495422281113
C        -0.55360336997520    7.69913056237945    2.20417995228602
C         0.28222610578626    4.42976550474663    0.77563582497917
C         0.28905361371197    3.07616719295910    1.04822493610305
C         2.78171239430662    0.82597739091703    1.87254844956275
C        -0.55413794470403   -1.85300074755338    4.71408841498897
H        -1.68398092286404    1.12384702834568    5.20001018785851
H        -2.65417293247057    0.28566918195716    3.99894753017056
H        -2.09432104406252    1.94319814513967    3.69047784580784
H         2.83273689009112   -1.69717079874702    4.35753611570649
H         3.07512559179387   -1.94290445772171    2.62991799576153
H         1.87654190616408   -2.90776754422890    3.50247727303220
H         0.16169820633994    3.21692850987333    4.42345668495668
H         0.14751365217769    5.61753577268724    3.93237378761559
H         1.76172202672074    6.63146131987821   -0.01328820493724
H         1.80688110508176    9.03185944088550   -0.52725819011393
H         0.34585452697864   10.59169663841784    0.70604393560721
H        -1.16469164898538    9.73136942000849    2.45768154400461
H        -1.22724014139651    7.32949519439469    2.96312222733387
H         0.30218958553161    4.76556977614338   -0.25030441767841
H         0.31721631244263    2.36084702822187    0.23977767800508
H         3.31240377929405    0.00768975147157    1.39287895664920
H         2.59239888743174    1.60323005302605    1.13778686556007
H         3.42337190593360    1.23914911357916    2.65203968049726
H        -1.63837522311129   -1.80428735094189    4.75728217662513
H        -0.25258429846669   -2.85466228799991    4.41944877262601
H        -0.16486861465625   -1.66463955795839    5.71531295524126
C         1.52016289314431   -8.05991128906511    2.10024815859818
O         0.60313852461311   -6.98122142479651    2.03497805003153
C         1.01337122725479   -5.80304121646511    1.53379435053209
C         2.30567021871948   -5.53449475225786    1.08325175347463
C         2.58758917244590   -4.26992204001073    0.59624238742587
F         3.84217757893150   -4.01884003362928    0.16596361177447
C         1.65624461942376   -3.25498882274969    0.54265798501735
C         0.36248274603422   -3.53975935818885    0.98063265475164
N        -0.60464130894770   -2.52771811213549    0.90787418660397
C        -1.75470505839785   -2.76254882132329    0.36462982166645
C        -2.66489201928168   -1.66169536162003    0.27694758999440
C        -3.90494439254203   -1.71129907122495   -0.36851292078051
C        -4.64905652968908   -0.55981499052378   -0.46544319119982
Br       -6.33464708637223   -0.53602109838531   -1.33726749386343
C        -4.15771972016530    0.64916285036872    0.08035949784914
O        -4.91485658026097    1.72647309240600   -0.05725633939995
C        -4.47032058724153    2.97697413913336    0.44955882958502
C        -2.91922558272457    0.60029355459311    0.72724334572277
N        -2.20274916913569   -0.51447480755100    0.82479032091602
C         0.04296305317646   -4.79685206462551    1.47261910374791
H         0.95890047855068   -8.89137655789407    2.52071915075555
H         1.88280910242909   -8.33083077979393    1.10554072974504
H         2.36486784388383   -7.82300740990115    2.75186895810860
H         3.08972775308044   -6.27226730669210    1.09770780791686
H         1.90298922385824   -2.28822255461442    0.13591613802363
H        -2.00246992506524   -3.72847638575162   -0.05982074894466
H        -4.25942112367619   -2.63650122939674   -0.79332017718390
H        -5.24244154493034    3.69008789176337    0.16971925281808
H        -4.37843803159354    2.94327995956037    1.53668795865043
H        -3.51977463404838    3.26664880517707   -0.00236273549856
H        -2.48731584080027    1.48861231992839    1.16270602919843
H        -0.94710270462586   -5.01749750645394    1.83665268098949
Cl        0.34301479945514   -0.12634133018244   -0.67756287751867
