77
 energy: -127.108184626743 gnorm: 0.000503021462 xtb: 6.4.1 (afa7bdf)
Ir       -0.60761049529994   -1.11864568900524    0.92540053182245
C        -0.96110675979881    0.69715070985667    3.78820339786933
C        -0.05524065606961    0.00522466604424    2.83330898110612
C         0.33988756298605   -1.36755302183686    2.93971134524035
C        -0.02320638672273   -2.28992640917300    4.05248738056581
C         1.33402041215816   -1.62258575321160    1.93168893193376
C         2.22755037164286   -2.81226174564749    1.86943810401068
C         1.51889630069240   -0.41950053311542    1.17634928285050
C         2.57026642411797   -0.20290591989986    0.14666740363735
C         0.65243324587081    0.59169614847364    1.73062160147807
C         0.76443782562329    2.02109148787377    1.41539479761388
C         0.95861018768700    2.94356647874535    2.44163967220137
C         1.11095205022894    4.28036051645218    2.12587042691076
F         1.30355489210529    5.16316903308495    3.12734905174694
C         1.07264423178878    4.74937374821882    0.82519153284219
C         0.88135413083472    3.80786993590159   -0.17143182420979
F         0.82201483076934    4.23025493293576   -1.45268370816014
C         0.73415104373382    2.46043881673335    0.09205391871756
H        -1.28153177867072    1.65919245169735    3.40092221309838
H        -0.43223863184362    0.85160235525995    4.72961773602098
H        -1.83739286505014    0.09062385730392    4.00581204787244
H         0.02370249294011   -3.32713293455153    3.73149101329241
H         0.68623925129294   -2.15712503171156    4.86977827757470
H        -1.01826961396339   -2.07637671602694    4.43188092518364
H         3.11542186599316   -2.60475063709896    2.46874039429127
H         1.74596075347269   -3.69731116203725    2.27353404892314
H         2.54424174580340   -3.01694840573921    0.85081025338892
H         2.20733272068506   -0.47700414964763   -0.84380230596802
H         2.85622808987528    0.84601828918166    0.11635782352488
H         3.44303373100149   -0.81275671745429    0.36675083825919
H         1.01962487322816    2.63527454832097    3.47166816700013
H         1.18786697027658    5.79607616116292    0.59849917995281
H         0.56656254718446    1.76888266474114   -0.71841033189103
C         6.31213929260841   -6.29630936425012   -4.48496161374253
O         5.07395587040519   -5.63738589484864   -4.64923273845542
C         4.21615935538427   -5.58143929922179   -3.59702088258140
C         4.46116467785769   -6.10970777811825   -2.33247738736921
C         3.50269482382355   -6.00483975293747   -1.34099057250301
C         2.28639821768849   -5.36983305534920   -1.57337992626902
C         1.25973190132688   -5.28786866247802   -0.52649730466103
C         1.04090158362437   -6.35574370586220    0.34729261794855
C         0.04855886235859   -6.29348036624623    1.31015679495635
C        -0.75854107782629   -5.17530722329451    1.41638055148794
C        -0.53754470483553   -4.09622605148824    0.55983279162574
N        -1.35109482711796   -2.95293423870721    0.62885559488220
C        -2.63725527572194   -3.09817185369751    0.56920183174377
C        -3.43645139223814   -1.91361945879578    0.57323027738812
C        -4.81153302005292   -1.91575387991822    0.33487860617738
C        -5.47608529448990   -0.70898279580041    0.30117924884524
C        -4.75058326578260    0.47615789810464    0.46200901721776
C        -5.48516757083499    1.68048350723731    0.52456756689582
N        -6.14992247794704    2.61129071359438    0.61039346653885
C        -3.35193786974944    0.41376553986684    0.63732029675707
S        -2.30089709997120    1.79469638668105    0.76187610757027
C        -3.06295479216360    3.08313760569149   -0.26380130890454
N        -2.73184668984067   -0.76956891765853    0.74335072055733
C         0.47201993050714   -4.14752554226228   -0.39642895784765
C         2.05511928094012   -4.82954495426322   -2.84040907635439
C         2.99940341037538   -4.93533487456540   -3.83565956703285
H         6.92325038156179   -5.81209994420120   -3.71760735616403
H         6.81397668304264   -6.21904825234158   -5.44766463874908
H         6.17119591362810   -7.35161585059338   -4.23317302644057
H         5.39247495028109   -6.60586515554347   -2.11063586852102
H         3.72186407373831   -6.40720356474812   -0.36335990593834
H         1.63916800794362   -7.24823587601326    0.25482335893347
H        -0.10695722575983   -7.12807460687446    1.97604588179193
H        -1.53461689009003   -5.12141898059764    2.16394465819240
H        -3.09162859944307   -4.07435221497737    0.44815939163403
H        -5.33195190199417   -2.84656480635774    0.18452036676658
H        -6.54488903441215   -0.65966665537561    0.15938827578431
H        -2.23134120202102    3.69383311888091   -0.60486180942253
H        -3.75424979649828    3.68589926000784    0.31517493038374
H        -3.55462452423104    2.62910970589638   -1.11734443664401
H         0.61492685521541   -3.29989634066022   -1.04911381625119
H         1.11463632620873   -4.34634531662737   -3.05571250730076
H         2.82084270267616   -4.53080901858064   -4.81943091675815
Cl       -0.60822293308056   -0.74551045831770   -1.40675784501237
