54
 energy: -89.720377849058 gnorm: 0.000573647178 xtb: 6.4.1 (afa7bdf)
Ir       -0.63657801481963   -1.40564104531216    1.06470488001001
C        -1.96827236871337    0.97229164674327    3.16786718068787
C        -0.84058726293186    0.08747770827877    2.75842342600083
C        -0.59712121179787   -1.23747660750075    3.28263380697130
C        -1.41940214730848   -1.91226581226765    4.32654821465859
C         0.71814586556791   -1.64419838212460    2.86260938827072
C         1.45051819668132   -2.83690845885146    3.36971136326644
C         1.22950762132655   -0.64112148045597    1.99094631613755
C         2.61140232100905   -0.55274863643043    1.43968174462862
C         0.26726490000928    0.44784569601101    1.94701948884771
C         0.53450399560244    1.77000105483576    1.31671214385486
H        -1.69518987423302    1.47310037480377    4.09788257222486
H        -2.87611081500826    0.40358368922442    3.35079723810859
H        -2.16466100359174    1.73993995898238    2.42397998497671
H        -2.47713762475310   -1.70270260217336    4.19381142510237
H        -1.26783693686202   -2.98771747580237    4.31336071584622
H        -1.12226863414855   -1.54119930779412    5.30815427511961
H         0.77802876836814   -3.66986736497756    3.55570026834141
H         2.22224521123781   -3.15715075443833    2.67543104182685
H         1.93070415356759   -2.57443658853658    4.31306939227423
H         2.59731574610360   -0.14879869189326    0.43004996948995
H         3.09630496394650   -1.52433073907839    1.42686824391187
H         3.20258112480839    0.11972427474718    2.06180857335983
H        -0.35563538918510    2.39113152278648    1.29579486593028
H         0.89538412764458    1.64367582835032    0.29793513835149
H         1.30801540506992    2.28725034693690    1.88503770791321
F         4.92813135677309   -6.26211060610156   -0.20137151044418
C         3.94968599920029   -6.61054425268151    0.64711656749288
F         4.49520913886591   -6.56620991492540    1.88349022468690
F         3.68068724535055   -7.90671595550505    0.41124032761250
C         2.73088574254741   -5.73785761348047    0.54344304614573
C         1.52967833462462   -6.19607979051480    1.07382636337795
C         0.40324943083540   -5.39828935376148    1.00717175348019
C         0.48228359575521   -4.13394042391086    0.42386065165889
N        -0.64774881313594   -3.30496542809058    0.36479489383998
C        -1.73692762809507   -3.72781448022689   -0.19599485365193
C        -2.83581507014374   -2.81013715396812   -0.22962231119343
C        -4.05472081961579   -3.05956246377643   -0.86261552264912
C        -5.02232773130416   -2.07273249084206   -0.86659897999406
C        -4.74076241284461   -0.85951518188000   -0.24664919399094
C        -3.50999122642227   -0.67957866200905    0.36093994980248
N        -2.57779992982858   -1.62785087469299    0.38594999342378
C         1.69107534841147   -3.67665124632534   -0.09853890015759
C         2.81363684752956   -4.48009403919078   -0.04445035477148
H         1.47999743214124   -7.17302486122932    1.52828127860864
H        -0.53043941419553   -5.74411984659296    1.42204284482600
H        -1.79990310729649   -4.70567433292515   -0.65911954630710
H        -4.21722342396729   -4.00950267294534   -1.34577422714645
H        -5.97378673183778   -2.23699605428448   -1.34707898248919
H        -5.46547427852497   -0.06185224722646   -0.23209085124233
H        -3.26366235328895    0.25433390849370    0.84289142584687
H         1.72855279433110   -2.70525837373524   -0.56643067754360
H         3.74857702011787   -4.13757044372431   -0.46010483519455
Cl       -0.15856046355780   -0.72007729801919   -1.17204894011861
