77
 energy: -130.861302121557 gnorm: 0.000227440428 xtb: 6.4.1 (afa7bdf)
Ir        0.29650420605624   -0.79806354979135    1.39959677956112
C        -0.89600765670291    0.27225530727949    4.33330472752040
C         0.28951397638648   -0.02175338544052    3.48221205162604
C         1.02386964408241   -1.24793919716541    3.47057454359773
C         2.15218316878898   -1.08249372622051    2.58873055773085
C         3.29829843782895   -2.02730079244924    2.45918453447908
C         2.16244283055019    0.28211150902712    2.12899504586103
C         0.98595662412362    0.92324361238538    2.62966388085161
C         0.65843134554713    2.34275094773802    2.44990971339105
C         0.36727534870064    3.15765383936313    3.54319571318480
C         0.07385660407885    4.49387777750710    3.35853140668992
C         0.05920060441644    5.05747462546941    2.08305830347418
C        -0.25856963897667    6.47939678470609    1.89018429577580
C         0.45915852359552    7.24978317912742    0.97729571103946
C         0.15880974958612    8.58744973890211    0.79722393591406
C        -0.86736171160028    9.17462216484598    1.51959781769698
C        -1.58880595124073    8.41680460136380    2.42788338440388
C        -1.28496946321300    7.08101994158641    2.61553530121839
C         0.35513097113926    4.24030456670431    0.99265151504697
C         0.65277392621461    2.90444781008334    1.17087233052354
C         3.27005471339717    0.92250619957333    1.37709841052433
C         0.76600998029552   -2.43790966664508    4.32551398733033
H        -0.56303994915714    0.48258646147523    5.35037422127619
H        -1.56923095076200   -0.58029847325759    4.37806904618677
H        -1.43891561318421    1.13798232944221    3.96319960936194
H         4.01601928807005   -1.81954511709349    3.25357282842720
H         3.79949307187635   -1.89818397143029    1.50468096406775
H         2.97096852928907   -3.05826907252439    2.55429834708860
H         0.40418336893253    2.75258228939207    4.54159110801573
H        -0.12718103647493    5.11765503998986    4.21614601382146
H         1.27107471497056    6.80432717470094    0.42116085358756
H         0.72712141209887    9.17556550493342    0.09138134109863
H        -1.10378817417934   10.21849746623793    1.37518622092643
H        -2.39214211986123    8.86954785223049    2.99070066552533
H        -1.86429557858404    6.49191280987001    3.31111409095508
H         0.33088501872108    4.65206758210627   -0.00480144077653
H         0.86217744586028    2.28119078071138    0.31337854618670
H         3.27603275631916    0.59375651432478    0.33808150130141
H         3.16585722945463    2.00400390500662    1.39280687230938
H         4.22225624886558    0.64034553166200    1.82253473775239
H        -0.27175787160111   -2.48180553726637    4.64153632197133
H         1.02357397557486   -3.35729050252814    3.80572330233473
H         1.39057192294466   -2.36829728715603    5.21668888053324
C         3.60212873113589   -7.53449382399828    2.58237457129861
S         2.56133438376252   -7.70975426625089    1.11107020395851
O         1.61813920022637   -8.78088023915185    1.32583834797553
O         3.40613552705749   -7.79010396638162   -0.05610407684999
C         1.64669583026770   -6.15600460951562    1.03858628623768
C         2.22527316832613   -5.06007044223904    0.42240297417249
C         1.52971204128203   -3.86642162089790    0.35902786111758
C         0.24512182603963   -3.78837737948209    0.89981611207680
N        -0.46356398802394   -2.58017527383561    0.80175716070266
C        -1.65353208612491   -2.57410351127932    0.28284584008511
C        -2.32446162294319   -1.31145006556428    0.20383441251903
C        -3.57353209525612   -1.11122800306879   -0.39158959910413
C        -4.10770789034747    0.16103240568254   -0.42560029012609
C        -3.36513938136020    1.20259624738733    0.13652045508562
C        -3.86811493615895    2.62234059514493    0.11401467676325
F        -3.39238743375426    3.30342520861240   -0.94340151076172
F        -5.20266377375340    2.69467845769041    0.04759692816037
F        -3.49300767254004    3.30610530718338    1.20528084050229
C        -2.12792317251434    0.93956340188659    0.70450766307506
N        -1.62273942057862   -0.28508756643836    0.74843923920994
C        -0.33054343526619   -4.89985738440578    1.51925258435838
C         0.38168524830865   -6.08425281931146    1.59288848136535
H         4.17957826677329   -8.44549486907857    2.68277109782735
H         2.95417006029105   -7.40100883342065    3.43860590884811
H         4.25708200835825   -6.68646039921832    2.43229041596094
H         3.20352792200826   -5.16280624222294   -0.01873704638625
H         1.94450836131331   -3.00296080158475   -0.13766999215058
H        -2.10775977494339   -3.47582236867932   -0.11084169738836
H        -4.10332415001957   -1.94535060477999   -0.82257685487910
H        -5.07195800694769    0.35314170272755   -0.87025742946933
H        -1.53644130957580    1.73947109747555    1.13128297933380
H        -1.31564827008570   -4.82527991655456    1.95246009465854
H        -0.03581131260934   -6.96444645543203    2.05471315663513
Cl        0.93352123543064   -0.44048852998594   -0.85820577480086
