66
 energy: -108.516162908338 gnorm: 0.000571201026 xtb: 6.4.1 (afa7bdf)
Ir       -0.00063317225444   -1.09542587197645    1.58079208961962
C        -1.69261130528147    0.24819221120856    4.19046845105917
C        -0.38582264876108   -0.06723700108096    3.54773591046150
C         0.38822546777338   -1.24024530562054    3.81069266835912
C         0.03579541081879   -2.26190794058432    4.83639238382468
C         1.64472720503297   -1.11354820270148    3.11726217658278
C         2.83325461514867   -2.00302432548663    3.27517363088473
C         1.66104749129128    0.15455031370799    2.46232508057033
C         2.84486606146435    0.77351826122885    1.80966734264041
C         0.38313765734388    0.78596153039461    2.68049707943604
C         0.06733268522435    2.17238754833703    2.30838992430586
C        -0.32405099401553    3.08564854058269    3.28588455718746
C        -0.56674880863638    4.39664665185309    2.92121240329682
F        -0.93837119402990    5.27437409618150    3.87550351183667
C        -0.44200607043121    4.84493562404139    1.61819061567699
C        -0.05570399882862    3.91324658866728    0.66985643436898
F         0.07076691891286    4.31213121772084   -0.61199311388814
C         0.20045603308159    2.59287030857725    0.98531314939238
H        -2.19429561824543    1.07035470661793    3.68857815457359
H        -1.51965708165085    0.53189323136644    5.22942457502313
H        -2.34616268847588   -0.62097757665396    4.19405124457323
H         0.75942333298784   -3.06997775777768    4.84444625888099
H         0.04402306965388   -1.78789733919091    5.81862256007815
H        -0.96100608246091   -2.66559079734640    4.67531831974545
H         3.33307560945433   -1.77707832903473    4.21743364388278
H         2.54677996568248   -3.05118291804622    3.27788539689513
H         3.53710715216906   -1.84484599289148    2.46344634225411
H         3.09400022666232    0.26042660812065    0.88149838484145
H         2.65354361302588    1.81803350352943    1.57960067825740
H         3.70476562159153    0.70308536667485    2.47402799414382
H        -0.41212243125418    2.79811626699581    4.32030263439786
H        -0.63397486351804    5.87144188202457    1.35430232948256
H         0.48443085014533    1.89890963677060    0.20930858624732
C         4.33566864130352   -7.35870782918547    0.01834360257581
O         3.56270129088695   -6.96745109785787    1.13568371380619
C         2.64122445665608   -5.99545516811204    0.98571071247615
C         2.37196025179901   -5.31536272956319   -0.19382027856621
C         1.39043709380511   -4.34073355012268   -0.24372520804908
C         0.69559800668038   -3.99543957349869    0.90865346560227
N        -0.28012010302638   -2.99103110421492    0.85550486196687
C        -1.25722820709416   -3.11628012239396    0.01163727654233
C        -2.15925717700056   -2.01176584165796   -0.11998656603590
C        -3.27547256105068   -1.99512868747877   -0.95859032640866
C        -4.05303228937188   -0.85492671732465   -1.01564986155279
C        -3.69052873229206    0.24111893359185   -0.23807855514409
C        -2.57045842051905    0.15745926919774    0.56890203100284
N        -1.82230924848108   -0.94097853087143    0.64153915230262
C         0.95889052626788   -4.66219518889890    2.11115504497865
C         1.89965596965006   -5.67431374680041    2.15655402152354
O         2.19423639684124   -6.42001676076438    3.24497097230452
C         1.45545064736753   -6.21798360057759    4.43369836502326
H         5.00017478338143   -8.13833722142554    0.38514099163610
H         3.70608984622599   -7.76283804726361   -0.77914565191049
H         4.92991055346148   -6.52485381281409   -0.36560914864715
H         2.91991870318926   -5.54618063582490   -1.09199005438919
H         1.19988122162594   -3.80839562549350   -1.16164081158708
H        -1.38391562554283   -4.01749168275552   -0.57653974754666
H        -3.50573590855760   -2.86483968583589   -1.55238885576163
H        -4.91998058833800   -0.81087485715052   -1.65565398192936
H        -4.26755369324256    1.15094146232130   -0.25658276159654
H        -2.26249936911601    0.99862511269614    1.17205371673915
H         0.36842192403283   -4.41074960047064    2.97537206940015
H         1.64751589301908   -5.22785464263262    4.85587041755354
H         0.38417826579490   -6.35339594422847    4.26502154723670
H         1.81195817764346   -6.97628383451494    5.12756991263022
Cl        0.87146424438353   -0.69265867418186   -0.59413146497798
