78
 energy: -125.783611978813 gnorm: 0.000148774965 xtb: 6.4.1 (afa7bdf)
Ir       -0.70328799408536   -1.33171574004822    0.81984580060501
C        -1.18949427743758    0.80021457818871    3.41517648897284
C        -0.22879342412654    0.01906473252158    2.58771726274481
C         0.18187038631389   -1.32725023131091    2.86677040590899
C        -0.20757645403763   -2.11585732262514    4.07057932791187
C         1.23698523564944   -1.67024569148045    1.94723792584059
C         2.13264599483858   -2.85528391557905    2.05727767976114
C         1.41735833380132   -0.57928860824075    1.05372683616209
C         2.49713031180430   -0.44913679465141    0.03618964073100
C         0.50035027447936    0.47607095933882    1.44430657403907
C         0.58449864544080    1.85540228946142    0.94436277422309
C         0.69929434305013    2.91518691527045    1.84339782698667
C         0.82398500020868    4.20141493377530    1.35418428784666
F         0.93823442206000    5.21853328201805    2.23340759483106
C         0.83541680611734    4.48898677261077    0.00096719349193
C         0.72150885620158    3.41603357884399   -0.86647046655911
F         0.72627144981478    3.65705285030565   -2.19324940407026
C         0.60042010797697    2.11256731047449   -0.42690897202433
H        -1.54266730995114    1.68153205567490    2.88773893304461
H        -0.69452558054976    1.11415844264063    4.33492473914353
H        -2.04530136032214    0.19141808955868    3.69736889681315
H        -0.11539690644084   -3.18280811281260    3.88594604775236
H         0.45640288026944   -1.85792077971588    4.89634701715030
H        -1.22638411593165   -1.89273989136817    4.37480103609158
H         2.98822498308379   -2.58700153678028    2.67862089435446
H         1.62704523079023   -3.69606004603406    2.52266885782314
H         2.50042409114776   -3.16548958956837    1.08322077669052
H         2.12831850837776   -0.70095415429422   -0.95751980838914
H         2.85686005407564    0.57755246362819    0.00516836402725
H         3.32331369099538   -1.11410449624461    0.27110979832999
H         0.72281706432152    2.75057466079155    2.90743876228358
H         0.93187106581562    5.49910671597077   -0.36024784487165
H         0.48876778280360    1.31401002402121   -1.14343981590525
C         5.18396982907286   -5.34959654350617   -5.73299925219849
O         5.40875185696701   -5.74969121082608   -4.39746102646079
C         4.39704199668058   -5.62866669531000   -3.49764449881184
C         3.12900167485086   -5.12804296055286   -3.77909499755979
C         2.17674567737507   -5.05354586283787   -2.77898074028163
C         2.45218336476665   -5.48226038640917   -1.48437890035734
C         1.41950547090428   -5.42948233861412   -0.44068940010129
C         1.27857780543240   -6.47421919052490    0.47540161188703
C         0.28728760393333   -6.44155105015674    1.44067124337193
C        -0.59190439015950   -5.37639191938935    1.50796364280280
C        -0.45225605242907   -4.32068440935552    0.60582981311529
N        -1.33316407557391   -3.23033920462192    0.65216031392135
C        -2.61024514304388   -3.44040697429527    0.68141478789401
C        -3.45771975679645   -2.28781537876623    0.69861872148569
C        -4.86345342337102   -2.37428218605194    0.68567781155836
C        -5.59940167382421   -1.22410300095250    0.65502466630050
C        -4.93626394836614    0.01894708218428    0.57766152517554
C        -5.63660163475824    1.23751508000600    0.48153173423997
C        -4.96472219287834    2.42400109521579    0.36181238859974
C        -3.56175744738573    2.43347437269783    0.31999658488944
C        -2.85029756750934    1.26908691369938    0.42903316634215
C        -3.50830340813144    0.03436269055854    0.57684525987735
N        -2.80088512179367   -1.11730565780238    0.69449676512602
C         0.55542005897963   -4.34197206920608   -0.35371250881207
C         3.72642816206818   -5.98305360720800   -1.21047239974577
C         4.68512173160007   -6.04921060093839   -2.19584188553949
H         6.11920928400154   -5.54020335492302   -6.25612287948953
H         4.94353582481420   -4.28412273218684   -5.79512040289128
H         4.38395575519319   -5.93532820895985   -6.19556528333053
H         2.87141045844932   -4.79846272081625   -4.77304315478542
H         1.19396075103629   -4.67867088161611   -3.02185450012876
H         1.93922510930308   -7.32459402934675    0.41543921771670
H         0.19234434781532   -7.25664158186779    2.14122792469653
H        -1.36199677916761   -5.34179950377817    2.26301310049794
H        -3.02329222228954   -4.44134800645658    0.63401607645508
H        -5.32786859658838   -3.34633994775715    0.70434665001293
H        -6.67800852100888   -1.24845988194127    0.66840811386272
H        -6.71537244817229    1.21260757398087    0.49020811071449
H        -5.50617119700014    3.35355648420323    0.28333816229275
H        -3.03997703683108    3.36930087745998    0.19345044958631
H        -1.77576748131795    1.27646043476609    0.35751886053966
H         0.64122510767385   -3.51373408005487   -1.04040677509817
H         3.97522397381726   -6.30273899426815   -0.20983612030312
H         5.67364166393487   -6.42755216517387   -1.98842697903352
Cl       -0.69319548649225   -1.12522701352525   -1.54650742987086
