63
 energy: -99.150457394422 gnorm: 0.000611030960 xtb: 6.4.1 (afa7bdf)
Ir       -0.83443664654574   -1.32743647291516    1.02556636944269
C        -2.03466156447908    1.13144970852151    3.11334207071060
C        -0.91118675490163    0.28002258676839    2.62822904666539
C        -0.53116635888018   -0.98156769342724    3.22194786587463
C        -1.19028229929766   -1.58986073700691    4.41330726010527
C         0.75195573310932   -1.35154341391329    2.68611350324068
C         1.67109139568823   -2.39305109341475    3.22105590968293
C         1.08635845956126   -0.41184598808978    1.67171633667085
C         2.38382897481019   -0.32946720334956    0.94551464238429
C         0.05851698231519    0.61709246579465    1.64800081116174
C         0.17849562272424    1.88987175702157    0.88065565178630
H        -1.73161386404341    1.60161678251707    4.04954628299366
H        -2.92452103433253    0.54015907300086    3.31508740928074
H        -2.27211731983120    1.92125216813920    2.40625469385879
H        -2.26414545860735   -1.42853620008977    4.39286958366133
H        -0.99950887965642   -2.65751433651927    4.46917555183914
H        -0.79488280956157   -1.12491997331758    5.31724199258814
H         1.17541800769450   -3.01749871853400    3.95651361091274
H         2.06486987355085   -3.02408667606033    2.42726074027554
H         2.51338104301170   -1.89542517352549    3.70247960179150
H         2.22995302814818   -0.00750559218359   -0.08138539774529
H         2.88933414904354   -1.29043771028434    0.94115697166888
H         3.02643610771121    0.40189087640393    1.43658962253478
H        -0.71192118936455    2.50290195661646    0.97815332286582
H         0.34789365770068    1.68403192322648   -0.17456972886982
H         1.03324247765941    2.45475053812650    1.25200062365751
C        -5.45131071138281    1.82056261860394    0.16200995164624
O        -5.75219600064608    0.55556409016938   -0.40961371648765
C        -4.87547126919338   -0.43761616268467   -0.32296130139161
C        -3.65268016761220   -0.38919346805145    0.34770084398615
N        -2.80990721759659   -1.41797767341288    0.39964778309884
C        -3.13108037767723   -2.56886749224422   -0.23672090655255
C        -2.11250430602245   -3.56820421099092   -0.18411006914587
N        -1.03156549506085   -3.27855659031752    0.46804237002302
C         0.03990700383149   -4.18638769092174    0.44757110784970
C         0.44745629066541   -4.83059026773120    1.60413002741534
C         1.48700111271408   -5.74790214152302    1.55360675549237
C         2.14818325780095   -6.01257333010514    0.36361120646593
O         3.17851408626559   -6.87311378414392    0.21451847566163
C         3.64702076307706   -7.57986866307807    1.34635847942084
C         1.73502735392059   -5.34552854490849   -0.82207729957929
O         2.43319069106587   -5.65811747587003   -1.93818023167564
C         2.07163035175816   -5.04348252253313   -3.15800867696923
C         0.67726605695349   -4.45902998771980   -0.76876070748560
C        -4.34620662479412   -2.71587297430934   -0.91541485964521
C        -5.21794988080840   -1.65585067433664   -0.95431213848080
Br       -6.88950612960555   -1.77202272227598   -1.84971801919190
H        -6.30354294124758    2.45213812180739   -0.07800170405905
H        -4.54705038197498    2.24185412835625   -0.28084955258386
H        -5.34746587007198    1.74363202116698    1.24591232527231
H        -3.34471629083227    0.51031327238870    0.85622034874182
H        -2.23540228839454   -4.52121810193472   -0.68466459130670
H        -0.07460012706497   -4.65380427989014    2.52892868674530
H         1.77449401422658   -6.25586091021441    2.45894077309227
H         4.02861595236424   -6.89754987198790    2.11082077619842
H         2.86418767450626   -8.21421172388728    1.77108702315456
H         4.45947555083068   -8.20413692313423    0.98028277844993
H         2.15663932547813   -3.95500816638827   -3.09744788280975
H         2.77813670407419   -5.42178965099102   -3.89408639504203
H         1.05523212546174   -5.31747254231475   -3.45541065702232
H         0.34858925218207   -3.92814437086306   -1.64674030507788
H        -4.58007652223263   -3.64390153206401   -1.41091770969989
Cl       -0.40533829818150   -0.94571065517190   -1.29661033754818
