84
 energy: -128.489984449858 gnorm: 0.000558434964 xtb: 6.4.1 (afa7bdf)
Ir       -1.05745884936845   -0.51836947414705    2.04463058081477
C        -2.48480221943214    1.51648508453038    4.51897459880687
C        -1.40647449633698    0.59309796578028    4.05526944194316
C        -1.57265428458621   -0.84967791287176    4.17999203894323
C        -2.77898562078709   -1.51486363774771    4.75263927259758
C        -0.31426010204714   -1.46429011175133    3.94892825872562
C         0.04783663808943   -2.87452219917147    4.25369191838019
C         0.59067572782537   -0.43700916402110    3.50821538518436
C         2.05817986282642   -0.63212065972091    3.33099341633235
C        -0.06558954771071    0.85458752783419    3.67341029977078
C         0.74226491417756    2.12849097087237    3.65271414173080
C         1.09217426938132    2.60996221657866    2.23606108799729
C         2.10587867121018    3.74798481060228    2.30404629351775
C         1.56571459943044    4.90682774552380    3.13727911629545
C         1.17498506912489    4.42576129794673    4.53219559255631
C         0.14568536502077    3.30106713639474    4.43551115811768
H        -3.46180396567495    1.14303734497545    4.22083322741588
H        -2.37401895288451    2.52575374396849    4.14408210652051
H        -2.46320501091147    1.55078940782020    5.60897076231598
H        -2.77817475459861   -2.57910363924673    4.53544227272361
H        -2.77946653839797   -1.38804790217765    5.83550141725459
H        -3.69593561223935   -1.07773825437633    4.36526834049025
H        -0.79719556446356   -3.54513241882839    4.12741321229719
H         0.87109496063563   -3.21987157746221    3.63520797187489
H         0.36499414099261   -2.92420254891555    5.29613600567497
H         2.27706436633314   -1.63444737057238    2.97364151182239
H         2.47385917900108    0.08287186013331    2.62777486195150
H         2.55583943296406   -0.49752055060666    4.29264878632769
H         1.69062681219083    1.86860288366633    4.14217696302912
H         0.18956863366618    2.95584981950923    1.73321738059729
H         1.49524668259284    1.79202837921452    1.64019026827174
H         2.33481190406143    4.09154728675743    1.29348262165697
H         3.03558678301756    3.38544453734385    2.74940924534539
H         0.68937605060942    5.33110975372911    2.64120021917648
H         2.31834414196163    5.69419611327636    3.21082352789842
H         0.75773642928512    5.25512854625304    5.10699388761914
H         2.06411521009941    4.07167847551191    5.05923353087239
H        -0.73144638470686    3.69401773674766    3.92135751115761
H        -0.14388504916641    2.97932258241014    5.43646792532666
C        -1.69563221706862    7.77384133294928    0.15571153144546
O        -1.99684021751835    6.40631826875601    0.42009405323982
C        -3.01796006464288    5.87258664415476   -0.25472972317722
O        -3.68400239834351    6.49087722701588   -1.05604613284324
C        -3.24105536805931    4.44409344992305    0.08411348222423
C        -2.43837119970978    3.76849798530956    0.99801993665350
C        -2.67392509327996    2.43763878840376    1.28060691930966
C        -3.72612847892923    1.75323443377843    0.67994211351079
C        -4.02893090611049    0.33312903451787    0.91880068027142
C        -5.37216101076762   -0.07249513916108    0.84636616273063
C        -5.70137219775726   -1.41297649835830    0.80273288385946
C        -4.67101943526480   -2.33854485393349    0.75945667764556
C        -3.36780644512034   -1.88223294697891    0.93074992058304
C        -2.23721487538407   -2.76777853379764    0.84717058405099
N        -1.06283228194012   -2.30530670522641    1.11476775784407
C         0.07352167191735   -3.11061457024945    0.95999321083420
C         1.25359452742927   -2.51821737099147    0.50704674560942
C         2.35615900239250   -3.32920004284885    0.33804808755415
F         3.50203972921707   -2.77811740477859   -0.11166299159354
C         2.35550325295949   -4.68453203146066    0.62267669829862
C         1.17879418035432   -5.26371591148630    1.09749625545975
O         1.03662059827473   -6.55829105284600    1.43128673667296
C         2.14338065790779   -7.43315900321449    1.29689363681630
C         0.04028036202086   -4.46837573314809    1.25914547678773
N        -3.06182793641451   -0.57310442381638    1.10429034240777
C        -4.51607145996972    2.43384302668772   -0.25534248658126
C        -4.27368231143665    3.75839264520984   -0.55168881420861
H        -1.51991362975794    7.92212692876694   -0.91121598425745
H        -2.52603705167041    8.40980316177947    0.46754189351625
H        -0.80130433431468    8.00011869720881    0.72920526014746
H        -1.62956045786119    4.29839055703320    1.47543736346155
H        -2.02804359338049    1.91683551659186    1.96732292372007
H        -6.14398384058789    0.67928604888499    0.83305034118592
H        -6.73252985658776   -1.72606311806314    0.76041052201131
H        -4.86091858556508   -3.39023518094397    0.62266938794456
H        -2.38345083447816   -3.77648231428004    0.47738806987993
H         1.28535835054554   -1.46943428389235    0.26184464347865
H         3.26025959223851   -5.24884632793436    0.47173125612114
H         2.46873351153616   -7.50354939622334    0.25615959698806
H         2.97796603983046   -7.11476868114542    1.92628353626234
H         1.78573264352761   -8.40436751208024    1.63167685283553
H        -0.84578465582196   -4.93933021007568    1.65168240759179
H        -5.29979014375720    1.91748880799304   -0.78722814990706
H        -4.87420861418630    4.28343506524145   -1.27858373732373
Cl       -0.31854751565726    0.45937582092615    0.00001691160331
