68
 energy: -115.111255452319 gnorm: 0.000242072508 xtb: 6.4.1 (afa7bdf)
Ir       -0.60549249756275   -0.90367034776952    1.27488938136113
C        -1.95223032342039    0.93453145569072    3.86334591863040
C        -0.78002817468598    0.23986718645070    3.26316825301668
C        -0.44535914529859   -1.14000303164691    3.48802097567460
C        -1.18521007839526   -2.06366638939863    4.39474827408049
C         0.86408419300800   -1.37348216608750    2.93785468625316
C         1.71600258360153   -2.56405810385034    3.20349819907024
C         1.27471095125107   -0.19637915760788    2.25437283735705
C         2.63199518316258    0.04798411793406    1.69300367594802
C         0.24757750641935    0.81725607076766    2.46174146506796
C         0.43086378724549    2.25131872938383    2.18011703526144
C         0.39192303354916    3.15815716634850    3.23816706342606
C         0.61607776939817    4.49770822972266    2.98272038976253
F         0.58198577454704    5.36696270455090    4.01354328997693
C         0.87431491024067    4.98204228640601    1.71285990070869
C         0.90144187779118    4.05691671443554    0.68364512114801
F         1.14450033194600    4.49424251479533   -0.56818825200490
C         0.68731647808721    2.70719873484923    0.88861289385217
H        -2.08275151274780    1.92773596434088    3.44469206072066
H        -1.79317020579121    1.02429532804031    4.93848151153586
H        -2.86720780920048    0.36516079055617    3.71553629161658
H        -1.04636253262799   -3.10059542797062    4.10003991352619
H        -0.80875129477588   -1.94861816538383    5.41168245730370
H        -2.24795416248077   -1.83861868746277    4.39892629672026
H         2.28417456369463   -2.38254057769457    4.11656249315202
H         1.11923850691900   -3.45965678617072    3.35146126167206
H         2.42056921295303   -2.73348333745269    2.39449596210615
H         2.99302136637656   -0.82088908229029    1.14845268954986
H         2.63107256468101    0.90479316321082    1.02637042285515
H         3.32375078296825    0.24714630967995    2.51237186677105
H         0.21664842346315    2.83218526384482    4.25006066397560
H         1.04690742148395    6.02998863504554    1.53321212215876
H         0.69472904032817    2.02799023309883    0.04943465165951
C         4.69650873673318   -4.64353293792140   -0.93559562345602
O         3.59126956592448   -3.77371236981625   -0.75946924521226
C         2.47893930141849   -4.23728460586177   -0.16004449659267
C         2.32568636461634   -5.52041611000336    0.37015717174094
C         1.13652317534702   -5.88272549956740    0.98041738254416
C         0.09149507357264   -4.98608785684069    1.04340326683210
F        -1.05673383203721   -5.34091976538895    1.66719945361205
C         0.21323215510912   -3.69549829658931    0.51485269349902
N        -0.84096915491689   -2.77378529150198    0.56851279793463
C        -2.03519794416597   -3.12461178437100    0.21328001093883
C        -3.04217023613673   -2.10776343439785    0.24177043365109
C        -4.37711205728272   -2.34055476965066   -0.14063738234002
C        -5.25860016815458   -1.29634468515126   -0.14104780137815
C        -4.79581901024135    0.00051277262782    0.16761332692125
C        -5.63505996681952    1.13103898777907    0.11439087589592
C        -5.13833806635312    2.38225899053094    0.36205184182332
C        -3.77674457539064    2.55182239306559    0.66132881532022
C        -2.93916361265740    1.47275997639276    0.74949964299351
C        -3.42354299607961    0.16997789208170    0.52490906851851
N        -2.59629443827671   -0.89974151784134    0.61927185375927
C         1.41895926014979   -3.33096755633210   -0.06822723375185
H         5.44531661153860   -4.05416873736739   -1.46043994899682
H         4.42518337122134   -5.51045695176660   -1.54266733965842
H         5.09909140575515   -4.97237030903357    0.02571109279404
H         3.12314852380576   -6.24214466026794    0.31814437126076
H         1.01223016225517   -6.86565105779506    1.40564401579319
H        -2.26094412224509   -4.11887032056929   -0.15399745491287
H        -4.67662192308373   -3.33859491611940   -0.41447069896726
H        -6.29668804902872   -1.44113663834924   -0.39767942184208
H        -6.67361671656884    0.98902430213966   -0.14164773032780
H        -5.78357459504074    3.24520108553004    0.31279877763545
H        -3.38897071955336    3.54611165111509    0.81807591330574
H        -1.88692165432905    1.60741005835429    0.94266899297940
H         1.52764568441983   -2.34582655559835   -0.49414548611978
Cl       -0.07978307963219   -0.20814881988084   -0.94124671011381
