78
 energy: -121.491398395229 gnorm: 0.000486263947 xtb: 6.4.1 (afa7bdf)
Ir       -0.11489359545542   -0.77762278322048    2.01848252266705
C        -2.28757068865841    1.08100634170114    3.92218393485579
C        -0.98803736091002    0.37322940626007    3.75418386472151
C        -0.71433593456696   -0.98111313971308    4.16089931315991
C         0.71029438116534   -1.17819232885318    4.11037579855344
C         1.42900525827696   -2.32756910782301    4.72707210597650
C         1.30240682072223    0.00095311143931    3.57082886719380
C         0.24165826880043    0.97091143455330    3.35443200154927
C         0.44020306417927    2.39792303670638    3.05227113245702
C         1.17075245123432    3.18206501035874    3.94237763446880
C         1.33874884349257    4.53229710194427    3.70901055809906
C         0.79804232569440    5.13390332280718    2.57424049862632
C         0.99132880742161    6.56979694458838    2.32091769410342
C         1.31049206731998    7.02864652211841    1.04452214386705
C         1.50134433618544    8.37802489603503    0.80996654426905
C         1.36720455097573    9.29100471191017    1.84353108495957
C         1.04416890462067    8.84573881582152    3.11519718171696
C         0.86138833264826    7.49586386645287    3.35372491794393
C         0.07711277801313    4.34280177405064    1.68213090950808
C        -0.10669111875441    2.99544612846248    1.92112615794226
C         2.75841433203862    0.31008677228820    3.48864807415235
C        -1.69040613604226   -1.89356203313979    4.82261101607535
H        -2.44341624059854    1.26253599373109    4.98647681297312
H        -3.12314583884298    0.48292379886076    3.56606608795966
H        -2.27104682309509    2.04349872044926    3.41675958304065
H         2.43911436631981   -2.42304364596629    4.34251331447276
H         0.89229635795847   -3.26099692604786    4.58319999156193
H         1.49501614137134   -2.14842597000934    5.80135597711378
H         1.59569485782805    2.73310376101242    4.82679113161545
H         1.91541739644261    5.12622294454206    4.40230700528971
H         1.43274589620752    6.32116580328168    0.23703784742981
H         1.75733669830052    8.72036024269113   -0.18243849816626
H         1.51435150189898   10.34503979991898    1.65843002802852
H         0.93450698143837    9.55417353502584    3.92355518615541
H         0.59710567660074    7.15775151387593    4.34520592100492
H        -0.34984329797626    4.79491061658031    0.79956390770659
H        -0.63721916253205    2.38831781138507    1.20290363760486
H         3.33202404247348   -0.54868987827476    3.15255415246803
H         2.93208348895035    1.13551426492852    2.80326926244157
H         3.12389039793802    0.59567556834697    4.47565884312775
H        -2.70003572265407   -1.71371126499942    4.46549925502660
H        -1.43562482225730   -2.93528113641142    4.64996201154990
H        -1.67352148112710   -1.71597207645991    5.89848906729828
C        -4.56666560339917    2.18883816681835    0.14238771407858
O        -4.58569087716096    0.98052143258040   -0.60472599594280
C        -3.67374188322951    0.04486674263565   -0.37727736235204
C        -2.66508446742869    0.10778117002598    0.58728717831332
N        -1.77552177742685   -0.86303164958849    0.77084230120829
C        -1.82416987483315   -1.96294819722672   -0.01029028588082
C        -0.76725289980358   -2.90188636727081    0.21968495123109
N         0.12239614197924   -2.59935692560724    1.10045765011263
C         1.24285529438745   -3.47182004109628    1.32491587785418
C         1.66901102227124   -4.47517703306908    0.23424137127110
C         3.12850426149418   -4.03437411004601    0.41775560797323
C         3.86723799185737   -3.68555878069005   -0.85493287116650
O         3.34593868085061   -3.52230507360821   -1.93110949155854
O         5.17231317301286   -3.57533838538689   -0.62032025724799
C         6.02499486635215   -3.21743550554899   -1.70818232108753
C         2.63519358349250   -2.81749700012098    1.23282927552014
C        -2.80981801657436   -2.12303268825300   -0.98888788579923
C        -3.73598301108248   -1.12366165068056   -1.16995631901804
Br       -5.11280978562949   -1.26373239406616   -2.47068365617531
H        -4.74504491277627    1.99479572933176    1.20162467731622
H        -5.38087461451373    2.78651088420084   -0.26104544543777
H        -3.62170331621326    2.71794124447574    0.00600154384154
H        -2.57624641847129    0.97133014724328    1.22757999215598
H        -0.72878575017100   -3.82004961467223   -0.35304641312774
H         1.09341771238103   -3.96131912490350    2.29095820897053
H         1.33587762157095   -4.19292780254310   -0.76285514653533
H         1.44782429054324   -5.52167173224142    0.42179468309948
H         3.74116901797868   -4.71141600811234    1.01016227969419
H         6.10454861597866   -2.13087764564685   -1.76800257919514
H         6.99670879192146   -3.65597887634532   -1.49551650705607
H         5.62016572718614   -3.60295457024567   -2.64516169289322
H         2.60605024653145   -1.90174144912219    0.64744755489607
H         3.15656060840337   -2.64461872752388    2.16747219470604
H        -2.83105608669239   -3.01317833841177   -1.59588979762014
Cl        0.96889354416423    0.14526489352311    0.09997148329186
