76
 energy: -118.245347399646 gnorm: 0.000557247738 xtb: 6.4.1 (afa7bdf)
Ir        0.03468675954227   -0.55646786267698    1.51829841499856
C        -1.48707697484772    0.88044525115055    4.16974039524504
C        -0.22811834164637    0.41924477903467    3.51980893908515
C         0.38361052509021   -0.85532994192031    3.73389338150837
C         1.64789941846585   -0.86576826586476    3.04017733364442
C         2.70240732520026   -1.91571278693180    3.14941991383472
C         1.84002582445988    0.42201492482149    2.45102471109382
C         0.65543431745155    1.20548795099498    2.69426509943134
C         0.51161685364498    2.63388783610322    2.37950406730114
C         0.24888408868386    3.55643653771063    3.39127576250520
C         0.15532775346618    4.90309185015218    3.10048056988253
C         0.32014342607862    5.36822276532590    1.79653774136817
C         0.23584446719134    6.80456265104937    1.49255994306478
C         1.13747293080786    7.39298657769597    0.60759891279514
C         1.06732397213912    8.74494902367039    0.32639553595955
C         0.09093054698122    9.52995448643360    0.91818176640414
C        -0.81352247731790    8.95429648137227    1.79569008487648
C        -0.73997008381118    7.60389285471034    2.08454815688084
C         0.57715539763181    4.44041030876038    0.78782776523361
C         0.67292392194977    3.09346271412159    1.07274796825747
C         3.09812259475095    0.90507375533184    1.82448314421490
C        -0.10605156130794   -1.86869222553254    4.70963093008065
H        -1.28599193559592    1.10014801325921    5.21900740679544
H        -2.25105215142724    0.10725720671296    4.13788571529844
H        -1.86740092483411    1.78142225983001    3.69709010848019
H         3.30854365931102   -1.72682683439160    4.03610986097554
H         3.35311903503248   -1.89537849618253    2.27936933688510
H         2.26549122990148   -2.90691707360786    3.23405210560844
H         0.15070743012549    3.22137196959382    4.41195413513733
H        -0.02245040675451    5.60866864992439    3.89801656998479
H         1.91250839991012    6.79237020818525    0.15414666515360
H         1.77799481336105    9.18939437302363   -0.35544232222200
H         0.03586563655826   10.58574563719912    0.69658004868565
H        -1.57931485623498    9.56182496587606    2.25579533812774
H        -1.45774861716940    7.16231093116371    2.76026775042953
H         0.68707604920525    4.77829753968663   -0.23160742143248
H         0.85593714092456    2.38465002723385    0.27882469426854
H         3.29999755469463    0.37856806247281    0.89255672271002
H         3.03443545061314    1.96887827853063    1.60921344533408
H         3.93272045154378    0.72193388007636    2.50012743987323
H        -1.16077971023710   -2.08872681436105    4.56191902729127
H         0.47148906474997   -2.78520085547774    4.65048582805308
H         0.00570017467364   -1.46093008298983    5.71523411335035
C         3.01309563540282   -7.74686261829585    2.06756991142773
C         2.86902313856846   -6.88158606579851    0.86294159651822
C         3.55509743539937   -7.12892326300822   -0.27765578654125
C         3.43477942115505   -6.31287039838117   -1.46539185940416
O         4.02300274436352   -6.50027680287871   -2.50905138910589
O         2.58494961764475   -5.24307135996979   -1.39985410572266
C         1.88270213637883   -4.96234124752230   -0.27923843690433
C         1.03674840739619   -3.85721807943820   -0.33014164571113
C         0.29799069918970   -3.50545667954868    0.78929248647142
N        -0.53153222873761   -2.37239040919607    0.74273980634481
C        -1.52560131297968   -2.34329366950169   -0.08392626444169
C        -2.25601785988206   -1.11281621100524   -0.18522438868500
C        -3.36698026325510   -0.92144245947514   -1.00727489311317
C        -3.96240323124377    0.32549115405551   -1.04859274400302
C        -3.42310521071448    1.34884921541854   -0.27606280294385
C        -2.31532585334774    1.09031468644858    0.51303528319173
N        -1.74671784146626   -0.11055065290570    0.57305941555810
C         0.38036621341523   -4.27414977334921    1.95511434798680
C         1.20065651351833   -5.37702415972520    1.99381800194259
C         1.97742139675845   -5.74334912314501    0.88591701997097
H         3.72348852332276   -8.54550613918286    1.87647110091942
H         2.05344851468543   -8.18802461678561    2.33101316554200
H         3.36399577813120   -7.16095365446999    2.91488797873431
H         4.23656144355260   -7.96036056854956   -0.36253438993693
H         0.99569589811798   -3.26510638994351   -1.22995806872208
H        -1.78687835572095   -3.20209231391899   -0.69192995321899
H        -3.73672202214411   -1.74204694161347   -1.60049755550713
H        -4.82378771894787    0.50244334826318   -1.67317132574709
H        -3.85320157642342    2.33699229967222   -0.28323332810626
H        -1.86776243731359    1.87285455085348    1.10866997864732
H        -0.23070139486191   -4.01195388188567    2.80262125905741
H         1.24872719018153   -5.97252435618348    2.89056065905880
Cl        0.98391142683054   -0.26314893034736   -0.64713317993030
