68
 energy: -102.600828542457 gnorm: 0.000267105410 xtb: 6.4.1 (afa7bdf)
Ir       -0.72339252475782   -0.58800206078609    1.51991592123157
C        -1.99201093278672    1.45420777081459    3.99698157831241
C        -0.95648575338438    0.51402343980488    3.48579910640151
C        -1.00616755412222   -0.91707047972823    3.69498232672099
C        -2.08461764741588   -1.63175299060996    4.43594903693976
C         0.27554147114499   -1.45742868589044    3.35343700876568
C         0.73748044438393   -2.84044212681817    3.64580670804187
C         1.06378799965584   -0.39971288137952    2.80447110021543
C         2.50376631128280   -0.46094575195271    2.43174724128600
C         0.30969444321620    0.83431466604619    2.92537105308142
C         0.90975224308909    2.18398852552457    2.71432120474973
H        -1.91389411441053    1.49474412211266    5.08442172486877
H        -2.99312007824866    1.11297512350851    3.74811444338994
H        -1.85080573027316    2.45647859644552    3.60824846917402
H        -3.05906659497985   -1.20239938336914    4.22055258466695
H        -2.10067771128779   -2.68871942993650    4.18552940053041
H        -1.90418572910069   -1.54196094254204    5.50786732797945
H        -0.07373285555197   -3.55973223704043    3.57153576665785
H         1.54144092497778   -3.14264917685744    2.98034591590527
H         1.11709056549269   -2.86777899693758    4.66816970618941
H         2.70220365733203    0.17239523130931    1.57058525086686
H         2.81200712927290   -1.47649475769754    2.20110675143523
H         3.10759926359280   -0.09840421637645    3.26445805164487
H         0.20866617848843    2.97689101822242    2.95517760671421
H         1.24522752743646    2.30336513798886    1.68557665107197
H         1.78135331280665    2.28835907641788    3.36032598903934
O         2.67854158001437   -7.45592538429094    0.56069159941024
N         2.98566206013686   -6.31699204844994    0.25532283371640
O         4.09947570845645   -5.99081268745021   -0.11507833810910
C         1.97719039192285   -5.30270947942497    0.33534484414073
C         2.28740877069912   -3.99225127783563   -0.02314737074607
C         1.31458271123633   -3.01815713866806    0.04968589291987
C         0.02278441348663   -3.34895353448696    0.46732334495414
N        -0.96636433398689   -2.36494738623335    0.54570060302886
C        -2.14973635644586   -2.59979628680637    0.08643775947090
C        -3.17222374616457   -1.61154931741919    0.26593773166690
C        -4.50209738078867   -1.93013637815209    0.04801660362689
C        -5.46417298231317   -0.98489154908981    0.39932891904121
C        -5.05413796528078    0.25691791114250    0.80159880684141
C        -3.67021604662958    0.59659625691362    0.83105014781196
N        -3.29420917993411    1.87342101535071    0.98835376366041
C        -2.03706282566129    2.37463563003552    0.46154368350247
C        -2.30856676826607    3.56973020613555   -0.45005903554770
C        -2.85751699004336    4.75082902465768    0.35767911110029
C        -3.59564710698582    4.23573299955226    1.59707280073222
C        -4.27878036061744    2.90354125340966    1.31020815428643
N        -2.74778674125952   -0.39329541843066    0.70311824208574
C        -0.27426051415471   -4.66682587194725    0.83673781887431
C         0.69858558407451   -5.64097857032235    0.77195116209019
H         3.28680344215179   -3.75940532434573   -0.35642235265605
H         1.53073636156335   -2.00124541866228   -0.23758674117036
H        -2.38347280912624   -3.52182785507344   -0.43608093044210
H        -4.77463199769825   -2.89919836965039   -0.33252676706905
H        -6.51430711747245   -1.22098027352668    0.33522573997758
H        -5.78943708959883    0.99959863463016    1.05296128490987
H        -1.36981764748382    2.67704850640304    1.26840714111481
H        -1.55715206431709    1.58469513800399   -0.11128530176081
H        -3.02264512704698    3.27057872828797   -1.21892161305704
H        -1.38422066535967    3.84597942791828   -0.95584763796004
H        -2.04630620857048    5.40987448403134    0.66769358607761
H        -3.53141712213447    5.33863311143124   -0.26628887068693
H        -2.90136768118051    4.11699872368743    2.42838591623299
H        -4.35298129990901    4.95439139090406    1.91046145213027
H        -4.97846569603522    3.04109026860691    0.47784917866897
H        -4.83847289304927    2.59285144098244    2.19552073073457
H        -1.26295578251123   -4.91628387913943    1.18956410091029
H         0.48937676819428   -6.66177886498728    1.05181784544119
Cl        0.31235946229127    0.14903257196017   -0.51747076583004
