55
 energy: -85.330286700557 gnorm: 0.000458421276 xtb: 6.4.1 (afa7bdf)
Ir       -0.80207165019121   -0.96678397555924    1.31906929954084
C        -2.39033353635187    1.43382817902547    3.20186013793583
C        -1.15822729111887    0.67586047297780    2.84079902681052
C        -0.71544882890859   -0.53425091434626    3.49782555835481
C        -1.40425160912544   -1.18076802366882    4.65140200938228
C         0.63298693070406   -0.80027695726815    3.07140486216340
C         1.54541565750664   -1.80801612265180    3.67870403247600
C         0.97008448786670    0.15167109015177    2.06947550977688
C         2.30884254779321    0.36529276661317    1.45009516790601
C        -0.13926453807294    1.08412327083993    1.94345029844754
C        -0.07655949060034    2.34680161622042    1.15540031764467
H        -2.18121374493475    2.03192934364908    4.08970623928365
H        -3.21526513047633    0.76657940867649    3.43791837660853
H        -2.68970483915576    2.11137430048457    2.40692440407521
H        -2.48425210953928   -1.12864052000123    4.54628458992082
H        -1.10937761336640   -2.22104554161673    4.75289651702921
H        -1.12804621685658   -0.65974310530823    5.56903693250961
H         0.99855014103160   -2.67838772733728    4.02984523244949
H         2.30532852266871   -2.13302132198862    2.97368181111046
H         2.04610836715083   -1.35408275404190    4.53469002894834
H         2.20863380003921    0.62206479951242    0.39792442971949
H         2.93327854121563   -0.51822354796186    1.54195919564289
H         2.80743396349904    1.19551692260271    1.95132000682030
H        -1.03922570884347    2.84775197446301    1.12456825301477
H         0.24468189739379    2.14608217073300    0.13530634313658
H         0.65191895750253    3.01789807751003    1.61087495450359
C         0.89761370825299   -7.29806780793356    3.09394409275099
O         2.01923495197670   -6.67866171129245    2.48898839163063
C         1.84705976714388   -5.51891362154541    1.83003013069856
C         0.64354953600237   -4.83463342111948    1.69212032783793
C         0.59377311384515   -3.62053882221772    1.00480270496227
N        -0.62167303289719   -2.93109368319101    0.88156713765000
C        -1.67712901394102   -3.54117865802721    0.44177034665081
C        -2.86833051702377   -2.75515426424869    0.32072415419848
C        -4.06908950345276   -3.21431983751383   -0.22344979162638
C        -5.13247653595037   -2.33897603239178   -0.33555609650271
C        -4.96260414576658   -1.02466032777981    0.08743747133082
C        -3.74351542110587   -0.63625182480383    0.61532433506546
N        -2.72047223708856   -1.47558660532831    0.74731823842462
C         1.73945094577133   -3.07608838077710    0.43447046013120
C         2.93899909426430   -3.75852737568739    0.54204875159881
C         2.98570817699436   -4.95088840825403    1.23266046770220
F         4.16407544199892   -5.59883114620890    1.34564546503690
H         0.14909354052021   -7.57255724209653    2.34684065211634
H         1.28732420773812   -8.19816847750775    3.56425477242661
H         0.45311180207293   -6.65283030660229    3.85537974654671
H        -0.25862889007127   -5.22058055655410    2.13786474048505
H        -1.64982145510517   -4.57735049120273    0.12663780814335
H        -4.14502528278305   -4.23664664700580   -0.55676788208661
H        -6.07249450761328   -2.66617100154711   -0.75085268115162
H        -5.76358112400434   -0.30792436831173    0.01028030586521
H        -3.58248973110554    0.37972856143585    0.94208974538048
H         1.67194936908253   -2.15338136021515   -0.11808393801821
H         3.84282753424586   -3.37610983138721    0.09584766640479
Cl       -0.46267229883012   -0.52164023237230   -1.00623105885772
