76
 energy: -121.683992087396 gnorm: 0.000415548160 xtb: 6.4.1 (afa7bdf)
Ir        0.79445718155569   -0.22675841553810    1.86730358355162
C        -1.91983362464586    1.47778831732372    3.02880486530868
C        -0.60296561458543    0.82325376588999    3.22781063874521
C        -0.40082387114864   -0.49386329756608    3.73838498309824
C         0.99443618874977   -0.63979293262340    4.03467529888381
C         1.63048630770620   -1.75911788243375    4.77196735553231
C         1.66006414226915    0.62441231447473    3.74050773613039
C         0.68564305805481    1.52252679766272    3.24621144484092
C         0.87637339250704    2.94797779998680    2.96488952345933
C         1.44409281939334    3.77139054222696    3.93734410518438
C         1.59307740411942    5.12376604656904    3.70634506736818
C         1.20329559852552    5.69071088511512    2.49353632300062
C         1.36374971358282    7.13076911417038    2.24718898608486
C         1.81691880647452    7.59447489414813    1.01348991304090
C         1.96219468128380    8.94994950579310    0.78240901836307
C         1.64918850492583    9.86366672171193    1.77586563787098
C         1.19576552988330    9.41323740875477    3.00519630396291
C         1.05883548258928    8.05787268196029    3.24208083138549
C         0.65317078559370    4.85954877128566    1.51798138882316
C         0.48197178822368    3.51108071877319    1.75241919295636
C         3.08801727456178    0.91714402391431    4.03396223031467
C        -1.47910899463430   -1.47289129312106    4.05934046815293
H        -2.30300098969968    1.76904691728382    4.00895301717409
H        -2.64301505544793    0.80097708169773    2.58179082646368
H        -1.83223456898748    2.37676126641901    2.42565973578421
H         1.69558699098093   -1.47220988438711    5.82351188427345
H         2.64510236637475   -1.94154767336489    4.42548743846872
H         1.04467138897801   -2.67161948285210    4.71203332342776
H         1.74214326391529    3.35324156945626    4.88577946819218
H         2.03483403619379    5.74846895946633    4.46772148429749
H         2.07811837733815    6.88828388494555    0.23878338063738
H         2.32109010356926    9.29629468554035   -0.17581297733697
H         1.75771160144310   10.92235163309397    1.59216840578353
H         0.94749000422110   10.12206155957604    3.78154188298725
H         0.68890554251472    7.71594262597353    4.19739418890592
H         0.34136633947057    5.28392256509090    0.57566550154139
H         0.07459950102229    2.87822685806329    0.97856861853323
H         3.72869366254295    0.10345576640929    3.70151866400001
H         3.40062455245998    1.83426951611505    3.54275807996005
H         3.22205303119477    1.02772881520878    5.11029037873422
H        -2.32099211194707   -1.35499544120850    3.38360345046765
H        -1.11825082073620   -2.49494707550543    3.99649367994789
H        -1.83058241740194   -1.29567742949924    5.07551880945300
C        -5.77982554639840   -2.07523965838687    0.43312730528371
S        -5.88347810448262   -0.27876238119995    0.18337713379831
C        -4.19854126112683    0.10560114668740    0.00893433135060
N        -3.31891655096806   -0.86954023677951    0.14118914435259
C        -2.01715371979880   -0.60651674210603    0.03959728131465
C        -1.12914523382379   -1.75383036265491    0.11177732152804
N         0.04497811301549   -1.73046280302490    0.63444300927313
C         0.89124578243389   -2.83524825364356    0.39311855879165
C         1.64631949375654   -3.39670862309521    1.42145062094601
C         2.48980462775594   -4.46197558610072    1.16355026477279
C         2.61030907148259   -4.96883111244013   -0.12024988211167
C         1.86645576003478   -4.40469367791004   -1.15304892289769
C         1.96871071682703   -4.89650390772789   -2.55413198846808
O         1.33616905626043   -4.42909236344360   -3.47474801353598
O         2.82287120988790   -5.90175924939104   -2.69750991713678
C         1.00078078756084   -3.34761493856268   -0.89505645018502
C        -1.52542804135974    0.67296095136920   -0.23032253548998
C        -2.43858186080502    1.70387150874421   -0.39893988655346
C        -3.79781564314841    1.43928739633200   -0.27092568665853
C        -4.75036742627741    2.46485650625380   -0.44163323709100
N        -5.50993745737614    3.31304742155960   -0.58248459992878
H        -6.80045315769830   -2.41626223861225    0.57001539408737
H        -5.18123733042944   -2.27897759803657    1.31314426619315
H        -5.33735012444106   -2.52785927931696   -0.44711572718430
H        -1.51198716847650   -2.66813032955253   -0.33675668852779
H         1.55057261505186   -3.00854538788442    2.42319725224297
H         3.06054895319039   -4.90024018204644    1.96677910820534
H         3.27656923280637   -5.78945078471713   -0.33051763010002
H         2.87374679149079   -6.21187599371624   -3.61951568374737
H         0.45797647708426   -2.90997239191379   -1.71923456578948
H        -0.46746243964797    0.83270959800858   -0.37958786084485
H        -2.11217543132557    2.70484585367208   -0.63811831104194
Cl        2.26961645593656    0.20705349360609    0.20524045744670
