71
 energy: -114.354695310241 gnorm: 0.000410896594 xtb: 6.4.1 (afa7bdf)
Ir        0.03213840764905   -0.43881765660946    1.84526393222104
C        -2.27560274398314    1.03146244966584    3.89747134320558
C        -0.87364047758727    0.58406517241843    3.67552834940401
C        -0.35229416942618   -0.70295954479769    4.03731724391691
C        -1.11191094178513   -1.76067255534191    4.76223898820910
C         1.07661613598532   -0.66975084464357    3.85277743693610
C         2.03854643972583   -1.66229997781420    4.40841802241721
C         1.41900264000227    0.58291283144634    3.26782329655311
C         2.79451039619334    1.12283812929792    3.08949134619053
C         0.19571669827403    1.36525958034707    3.14810047618518
C         0.16600229473116    2.81397668066015    2.88384397477560
C        -0.31443113047196    3.66870358561544    3.87519132937531
C        -0.28535176168648    5.03326513314773    3.65787114603974
F        -0.74753008916197    5.85186432531337    4.62556076438505
C         0.20021010033436    5.59241116536250    2.48934947267251
C         0.66400011149180    4.71634254586350    1.52331276004357
F         1.13685941279475    5.22432076502868    0.36662396736390
C         0.65626694487506    3.34528718767823    1.69405278916905
H        -2.46081858570159    1.99086394400773    3.42201486764641
H        -2.44422545438585    1.14208941374685    4.96924601723509
H        -2.98883867536685    0.29585473465554    3.53157340080291
H        -0.70904228364631   -2.74841399019954    4.55790067512487
H        -1.03731748269349   -1.58112598651174    5.83531102516716
H        -2.16270285155536   -1.74583842230940    4.48866350648241
H         2.33861223564895   -1.32485690710675    5.40153709163903
H         1.58508035154534   -2.64354681116953    4.51525901526900
H         2.93575473909535   -1.73420897461986    3.80038165887136
H         3.52116648724791    0.32463796717972    2.97213253750006
H         2.85214930493620    1.78115034097155    2.22743519161322
H         3.06011153971531    1.70381116791732    3.97369308685484
H        -0.68046758771942    3.28894657158485    4.81492808372676
H         0.21907612928129    6.65896294154510    2.33930638479887
H         1.00756175559509    2.70360257846563    0.90119335894257
C        -4.45454078992047    2.52285523746306    0.05010181003766
O        -4.45221432666986    1.33325078725565   -0.72573454773634
C        -3.53309149206892    0.40180610367794   -0.51358930015651
C        -2.52660223130862    0.45269794128954    0.45482283684672
N        -1.64408373809644   -0.52558269276358    0.62700197024463
C        -1.68928922767140   -1.61612104967417   -0.16846261245782
C        -0.65766458860471   -2.57335504329548    0.09518404477488
N         0.21264499444000   -2.29158535784885    1.00473978285535
C         1.26380314124420   -3.25667710991864    1.24808869947137
C         2.45420011735166   -3.07574032161741    0.28691966045494
C         3.45741261372061   -2.02673468536320    0.77476778445663
C         4.56013565035072   -1.85418512741493   -0.23308308084423
C         5.70218230668943   -2.64294324223715   -0.17759905529801
C         6.70150267891210   -2.50320546605494   -1.12509493435678
C         6.56864078262590   -1.57223104648982   -2.14183580755956
C         5.43266354463737   -0.78203106619029   -2.20536496630568
C         4.43510393864449   -0.92393723118757   -1.25713614161082
C        -2.66415901182549   -1.75654766975329   -1.15995852608134
C        -3.58715211387179   -0.75165192523211   -1.32962904749966
Br       -4.95264413739967   -0.86504195740960   -2.64515437265839
H        -3.52020089649956    3.07283462420124   -0.07599394242399
H        -4.62720921003717    2.29867615885615    1.10448981967588
H        -5.28114673834899    3.11471976142807   -0.33652461709599
H        -2.42867285149985    1.31097248122099    1.10081894519595
H        -0.62205023007414   -3.50385350990055   -0.46134372583212
H         1.61121294724984   -3.15320413005661    2.27459346555242
H         0.85308148548436   -4.26066495669790    1.11042847858155
H         2.08358528262866   -2.78633280908246   -0.69732216527021
H         2.96511715158435   -4.03388276071336    0.18588323946189
H         3.88429713280024   -2.35284116931315    1.72455309168333
H         2.94088436476230   -1.07660628579592    0.91318382535113
H         5.81558813466368   -3.37042948427375    0.61383017028301
H         7.58710622996306   -3.12018391039707   -1.07087323059616
H         7.34845791602153   -1.46181730140533   -2.88163638229378
H         5.32676415687411   -0.05176427029734   -2.99502954199389
H         3.55248360752506   -0.30327133701400   -1.30656545309900
H        -2.68247364979367   -2.63470480900788   -1.78443606300009
Cl        0.99374016555318    0.41694009022154   -0.15985265147404
