67
 energy: -104.182174480288 gnorm: 0.000777290490 xtb: 6.4.1 (afa7bdf)
Ir       -0.75659439519184   -0.86281446206255    1.31250361335540
C        -1.83657880875963    1.29474700595016    3.79474897779071
C        -0.75090893142753    0.49667054096271    3.15662316260976
C        -0.44487782639836   -0.86810344419066    3.51037408292974
C        -1.12473882147091   -1.64136152932514    4.58968162916567
C         0.82013861111969   -1.20890824553807    2.90800585756581
C         1.64052368219335   -2.40195172860279    3.25553930465976
C         1.21633137486903   -0.12328119116065    2.08359725998423
C         2.51217638255782    0.03786581087022    1.36826116770060
C         0.23845162896682    0.94159219342639    2.23967024700887
C         0.44824329244714    2.32552133086440    1.71891467395188
H        -1.59158929525659    1.43298751727301    4.84806394906910
H        -2.79282242122267    0.77966457184832    3.73958227972669
H        -1.94056200931375    2.27141994634175    3.33424176543806
H        -2.18953050417482   -1.42690864317637    4.61379839080173
H        -0.97888486777368   -2.70992688298314    4.45927169081111
H        -0.70004441027378   -1.35884015450331    5.55393626407576
H         1.02869777535292   -3.29156770529012    3.38165204101557
H         2.39341519197104   -2.59498138860952    2.49734593882068
H         2.15046325985967   -2.20603531340199    4.19963765418589
H         2.37955203919505    0.62910086166092    0.46556306191383
H         2.94852521183030   -0.91781416431164    1.08921723272492
H         3.21791543012392    0.55893803940877    2.01636609297413
H        -0.36875724879116    2.98654359270914    1.99389394531752
H         0.54898792540543    2.31842141706843    0.63438191450490
H         1.37256062463681    2.72694168535349    2.13457474209624
C        -6.93305082256542    5.70991235127601    0.29920092246241
C        -5.71653035040419    4.81100367968527    0.45569027728638
O        -6.15434279902417    3.46416959098993    0.30235756035529
C        -5.28447562252668    2.45208240544976    0.40255370054613
C        -3.89905798068513    2.60149134724687    0.64802693852025
C        -3.08798585089161    1.50765906818226    0.76264935089081
C        -3.59123182347115    0.20052905837890    0.62605087612258
N        -2.77529270346933   -0.87082834202559    0.75133152801429
C        -3.24826440534649   -2.08767056374851    0.43275433685159
C        -2.26560615296738   -3.12055693972902    0.42030225391731
N        -1.05277871651045   -2.78999402193008    0.74219079530700
C        -0.03217737984809   -3.74744787776090    0.70271494632179
C        -0.24276818595248   -5.05062824709748    1.16185540927337
C         0.78260749881322   -5.97751174771498    1.10794503849544
C         2.02303719760433   -5.62637016065785    0.60240092309468
C         2.24076505042340   -4.32396693542736    0.15768001286244
C         3.57512545453230   -3.88892573511371   -0.33465820943040
O         3.91760655488140   -2.72892933061015   -0.39446257594047
O         4.36336291111859   -4.89782748041210   -0.68151870411286
C         1.21731509234081   -3.38549618105196    0.20997876120807
C        -4.60035303786355   -2.31164657079813    0.09125669097907
C        -5.46696517130245   -1.26075547746910    0.06799564291565
C        -4.97788972776694    0.04559656263321    0.31106168121860
C        -5.79509481498234    1.17427995462415    0.22891575668498
H        -7.37683732544400    5.57130713233065   -0.68286574610058
H        -6.63614560557365    6.74854118718027    0.41112621787320
H        -7.67668148082224    5.46835981295490    1.05373868818652
H        -5.27179942780055    4.94534622383190    1.44938555008679
H        -4.96898351550904    5.04848041266309   -0.31122208496523
H        -3.46994460579050    3.58663157813400    0.73256895417191
H        -2.02698823734865    1.62900325531227    0.90183636249240
H        -2.51647431696826   -4.11949285578957    0.08282786642489
H        -1.19776108459720   -5.32375608161401    1.58405057380797
H         0.61456065191113   -6.98033979737221    1.46822923321419
H         2.82577182340750   -6.34445214768581    0.56176118346158
H         5.23408894285393   -4.59237288086200   -0.99254715982616
H         1.38385483902986   -2.38536404846658   -0.16096573163335
H        -4.91942241919752   -3.31514460737650   -0.13709706159519
H        -6.51202539040231   -1.39882998753282   -0.16054550777373
H        -6.84359343535421    1.06116645109590    0.00490887827185
Cl       -0.32715151700093   -0.26091971432022   -0.96103207014842
