54
 energy: -97.512045178989 gnorm: 0.000673974268 xtb: 6.4.1 (afa7bdf)
Ir       -0.45274404056236   -1.32841137420851    1.15938773656282
C        -1.80376812695439    0.86744552178222    3.59000901627582
C        -0.69258760328141    0.06947499892909    3.01275749290906
C        -0.40490426578590   -1.29357175431274    3.40049801962673
C        -1.18650404558252   -2.06949381596920    4.40286018423030
C         0.90663312204001   -1.62604932928021    2.91930069914363
C         1.71479215845152   -2.79295201064206    3.36274870544635
C         1.36138087181352   -0.53409405383084    2.10879373268999
C         2.72251107221622   -0.35972745023292    1.53593257826037
C         0.36290631358267    0.52291892247632    2.17919174317347
C         0.57868613197080    1.90184118335068    1.66250774163174
H        -1.60977468469387    0.98882684002957    4.65659424638628
H        -2.76120984549044    0.36278594852782    3.48800507603104
H        -1.87243868527079    1.85022464718580    3.13683229118473
H        -2.24717148923900   -1.84666956464581    4.33132705592052
H        -1.03650784072804   -3.13832238162125    4.28126926694058
H        -0.85118202929268   -1.79421141864478    5.40366190526934
H         1.09260404074648   -3.65891327220556    3.56940349823347
H         2.46952759635207   -3.06384848155739    2.63031935705789
H         2.22591944905514   -2.51670832660580    4.28632406292660
H         2.67000643262697    0.09710401759526    0.55050890361414
H         3.24893685600450   -1.30639285998516    1.46368663672712
H         3.29343061031971    0.30734892854637    2.18237754341519
H        -0.34190235098906    2.47665773105432    1.66438854493513
H         0.96958590855275    1.87456856926547    0.64822396724955
H         1.31084894409873    2.40671078437937    2.29284765186295
F        -4.08137488945393   -4.33612769714112   -1.21281800648752
C        -3.87483286472325   -3.07889958080870   -0.81565083855646
C        -4.81372889955810   -2.09788600102161   -1.07053098669522
C        -4.50539581269789   -0.80289739951244   -0.68075378496951
C        -3.30267096146092   -0.55896053722970   -0.03056372730369
Br       -2.86620083255448    1.20981440355916    0.39820876349450
N        -2.42694475660814   -1.51122635903189    0.28325353081405
C        -2.68114934051569   -2.77394860967688   -0.14712771395713
C        -1.61341961331206   -3.70383550498108    0.02682540955044
N        -0.50500821381815   -3.24796790750868    0.52367295088645
C         0.60809295987912   -4.09921682786135    0.59479377022325
C         0.51320310233133   -5.35831725398222    1.18581587087846
C         1.62134301667793   -6.18434161220897    1.23168361567377
C         2.82009053905040   -5.75596536576964    0.67582997322703
C         4.03123175623248   -6.64687042675608    0.68366799204489
F         5.14571716790274   -5.98800124385790    1.05097808870534
F         3.91660080212727   -7.69207743985750    1.51549786924673
F         4.28939836232540   -7.16088694439326   -0.53650519760382
C         2.91896178709016   -4.50270035203734    0.07817596119570
C         1.81746201959429   -3.67025930508890    0.04785070653092
H        -5.73615276900163   -2.33551159790579   -1.57615545444709
H        -5.18394044796987    0.01184942141543   -0.87774269570514
H        -1.70901459371114   -4.72167152485322   -0.33459001922009
H        -0.41821440486504   -5.68240370529281    1.62296420241898
H         1.55582172854607   -7.15592121172936    1.69526565922752
H         3.85468343577766   -4.18530931696880   -0.35600597220448
H         1.86948602177077   -2.70095987808004   -0.42357771677242
Cl        0.12351120047730   -0.62999422122894   -1.04661690831454
