73
 energy: -121.815603609065 gnorm: 0.000668664884 xtb: 6.4.1 (afa7bdf)
Ir       -0.49532238628758   -1.04906788965502    1.57149938749525
C        -1.73526381409632    0.83535408195793    4.20218065391283
C        -0.58808596988916    0.15501961814902    3.54712697219283
C        -0.21891150656949   -1.21514492699340    3.78579489274751
C        -0.88396158614294   -2.11779103043870    4.76755383768156
C         1.05618555369468   -1.44596813453400    3.16647449769472
C         1.95679003413395   -2.59931779986936    3.43993009725865
C         1.40463164209233   -0.27299750164821    2.42899657995943
C         2.72637528111743   -0.02111357521159    1.79190776410123
C         0.38139333419378    0.72943877993008    2.68002029442859
C         0.51360067863490    2.15366574279531    2.34114815356570
C         0.49879887634243    3.09887761997606    3.36456415721781
C         0.66604165945367    4.43356205780467    3.04884995765037
F         0.65849971698667    5.34110002797192    4.04735102861605
C         0.84097918466672    4.87690668916559    1.75029143644763
C         0.84792136018576    3.91307304716158    0.75743147696397
F         1.00090024745090    4.30976738800571   -0.52456466399244
C         0.69459245551399    2.56645548949351    1.02320939519801
H        -1.89703681221785    1.82565972955398    3.78884153725357
H        -1.52635398021254    0.92344265155391    5.26909275038855
H        -2.65004574820593    0.25631176484113    4.09724475722776
H        -0.66517047796743   -3.15944670989237    4.55119862839592
H        -0.51142367518150   -1.89351280312673    5.76775480901143
H        -1.96017643023558   -1.96943641277541    4.76977347374442
H         2.48173907205896   -2.40338313558938    4.37589155563575
H         1.40424503291475   -3.52779523728762    3.55319724712575
H         2.69547163083416   -2.71974457074042    2.65403633355278
H         3.02213176284615   -0.85219943893200    1.15637046240772
H         2.70537497820105    0.88691130106944    1.19723238278790
H         3.47915825210015    0.09073551101164    2.57295153543598
H         0.38315018212432    2.80793827439506    4.39535440870863
H         0.96521053928744    5.92245821211413    1.52300686619127
H         0.68410126704104    1.85533779668438    0.21163080368471
C         5.25489505432366   -8.81557718105060    0.75891479331667
O         3.99377734908730   -9.02772097936350    1.36441231643504
C         3.09255318250590   -8.02716280586684    1.36944832145862
C         1.85520645420927   -8.33929305943330    1.99132558679765
C         0.85680113553271   -7.41841909043267    2.05891558151594
C         1.02396233669532   -6.12647612893378    1.50159987059626
C         0.00138543141745   -5.16949004306741    1.52927372441272
C         0.20033656760030   -3.91032433077733    0.99123603630414
N        -0.80925324159118   -2.94872958100152    0.98818723993303
C        -2.02315420311341   -3.28625787836695    0.66057455060573
C        -2.98705772967413   -2.24137507785191    0.55978523655601
C        -4.26571326674772   -2.40825418174819    0.01873142265005
C        -5.06159961972136   -1.29939069612109   -0.16104049542906
C        -4.55177531028904   -0.03703341376899    0.17078610653057
C        -5.38192507463448    1.09695158313338    0.02440340662937
N        -6.08969381862457    1.99136704464090   -0.09475881566751
C        -3.25127448840830    0.06508519230706    0.69056007025816
S        -2.51263534069103    1.61772675809016    1.09097526286685
C        -2.59152390012943    2.47340863823186   -0.50846258903360
N        -2.51601477943078   -1.02067401849620    0.92252778202353
C         1.44481617161463   -3.58228337662708    0.40347152420583
C         2.43771494520999   -4.51338734310374    0.33780559374888
C         2.26671661269675   -5.80731837789449    0.88496989727266
C         3.28651772785513   -6.77095416307386    0.83217974714746
H         5.80473434323424   -8.01584662404668    1.26220685432814
H         5.14814200291930   -8.58092072603364   -0.30359033310117
H         5.79466481958041   -9.75357119030056    0.87087198454632
H         1.74124087429696   -9.32943106564158    2.40312269211713
H        -0.08103046513963   -7.66761103005505    2.53131109908907
H        -0.93270906957014   -5.41361803806741    2.01328734484838
H        -2.27033484188449   -4.30051186383878    0.37239075525472
H        -4.60679295000533   -3.39215808335596   -0.25738860877949
H        -6.06285253036551   -1.38270198904368   -0.55519825417483
H        -3.61786432961639    2.67760286914376   -0.79195968148388
H        -2.07845489090796    1.86881309467310   -1.25003759914611
H        -2.05693583591134    3.40580028422892   -0.35677590938018
H         1.56195079343701   -2.60318627244904   -0.03506328623647
H         3.37529346608322   -4.27305737938148   -0.13986945953838
H         4.21709238306842   -6.50306960379625    0.35815561648996
Cl       -0.07813831983343   -0.44672248840911   -0.69380185663015
