75
 energy: -123.580564068097 gnorm: 0.000162386357 xtb: 6.4.1 (afa7bdf)
Ir       -0.16474882311502   -1.07449563858520    1.49675588467507
C        -1.39707121765100    0.19681690696641    4.35022979777336
C        -0.20567454718890   -0.21709047191164    3.55661338086181
C         0.43165217883715   -1.49340424752798    3.61119168252472
C         1.62052457304601   -1.43661376660372    2.79505355395066
C         2.70265044392026   -2.46304381916736    2.75798233230746
C         1.73116744083832   -0.11551293790476    2.26498693161834
C         0.57174898117150    0.63017158980866    2.68265480343379
C         0.38287610535479    2.07091597382513    2.46141470619659
C         0.22893782051034    2.94035952543992    3.53977695839691
C         0.10284159667533    4.29913698229281    3.32761753741113
C         0.12639693458985    4.82899395747253    2.03822119759827
C         0.01640237773683    6.27870388658585    1.81716665255350
C         0.82219376764430    6.91042193514712    0.87174891795299
C         0.72983402347332    8.27482123129036    0.66738089121129
C        -0.17383693043479    9.02914090584158    1.39812237399819
C        -0.98222476642408    8.41063070432208    2.33805571412605
C        -0.88644740487122    7.04726157569720    2.54905320461809
C         0.26990231665923    3.95339797508944    0.96251531386965
C         0.39836803224625    2.59481451070549    1.16882122523971
C         2.90022012113339    0.42727377069318    1.52377960915585
C         0.04198993358875   -2.62522330945123    4.49696561493963
H        -1.09573315978348    0.36786183817077    5.38413899574418
H        -2.15912231944004   -0.57888340151563    4.35301207235067
H        -1.82395392021191    1.11573057697260    3.95849056210727
H         3.41739510872950   -2.25415791447962    3.55508250950006
H         3.23393622400427   -2.43329556287899    1.81102117980363
H         2.30894667263861   -3.46396178331727    2.91087383069991
H         0.24260737741069    2.55483230892191    4.54724068943339
H         0.01149513899754    4.96367315103507    4.17353466803386
H         1.54214981733076    6.33245656531127    0.31046448996282
H         1.36605119503289    8.75304039373426   -0.06336580243816
H        -0.24578071113748   10.09483312604283    1.23700580281627
H        -1.68976301688503    8.99488356347258    2.90853284253643
H        -1.52985443076935    6.57175001368948    3.27486062304603
H         0.26824296925282    4.34158230338285   -0.04480578255982
H         0.49795302911570    1.92677558525774    0.32597597048066
H         3.82106669764115    0.11931817450880    2.01597961780547
H         2.92289519459242    0.05307031434885    0.50082711016928
H         2.85299112356908    1.51272903735321    1.48644461877805
H        -1.02307093400876   -2.60954884308552    4.70957844080664
H         0.30555156339172   -3.58197812150823    4.05257280830959
H         0.57772568109484   -2.53587177005543    5.44264871835365
C        -6.57774944497884    1.00987059696095   -0.70592008788833
O        -5.89146340880106   -0.23508222754465   -0.68366285941507
C        -4.66799829786153   -0.30295539908273   -0.17825270827891
C        -3.93699543604027    0.77199463050125    0.35338604039502
C        -2.67120884632812    0.54961045378570    0.85330838181216
N        -2.09624412168078   -0.64884919862192    0.87362007967301
C        -2.77836736283584   -1.69992555227560    0.34890697991417
C        -2.04461262897803   -2.93612655407058    0.37672239598432
N        -0.84775210077976   -2.89398258277956    0.86178966728592
C        -0.06239160984051   -4.05448492750849    0.91954319163377
C         1.19147509846342   -4.05863085971885    0.30967986509275
C         1.97478971815884   -5.19433724310447    0.35556852657087
C         1.51358435101891   -6.32330802682580    1.02646991570730
C         2.39740088076637   -7.53615148824821    1.09621095664373
F         3.36802674711476   -7.39895328589109    2.02697550506305
F         3.03277111175448   -7.78238646510014   -0.06289582808417
F         1.73525547741712   -8.65892976905219    1.41462373515818
C         0.27178508860906   -6.32025453969434    1.65009000681422
C        -0.52071504810082   -5.18865562516852    1.58857879452521
C        -4.05050129341325   -1.56305211350251   -0.17795226986090
H        -7.54549814714129    0.79682714943047   -1.15410882284776
H        -6.04481071292426    1.74128635629667   -1.31676764586876
H        -6.71963757705071    1.39622590633889    0.30537472594722
H        -4.33796474918811    1.77111340159868    0.37837505286975
H        -2.09229759724671    1.37093989200092    1.25134731436485
H        -2.46827662939410   -3.84794479237810   -0.02892019011840
H         1.52446122254122   -3.17699286863217   -0.21528556496778
H         2.93909180878519   -5.21226896313426   -0.12755986115486
H        -0.07466957696071   -7.19902700202493    2.17136689164548
H        -1.48436147446108   -5.17616834030129    2.07304497842206
H        -4.57253308027720   -2.40820166115982   -0.59501362315279
Cl        0.43783338167960   -0.69303269633105   -0.77373879402107
