71
 energy: -119.446800947679 gnorm: 0.000190634007 xtb: 6.4.1 (afa7bdf)
Ir       -0.41507707264924   -0.76012135131946    1.73817048126784
C        -1.54667502572256    1.00305838977833    4.45122393164602
C        -0.41054901523441    0.36061637120367    3.73889180885034
C        -0.00425478366692   -1.00119283077580    3.92614647264564
C        -0.59684194214805   -1.95322506771368    4.90811474321495
C         1.23143876770286   -1.19953278002092    3.21622277643083
C         2.14594499429476   -2.36059651787147    3.40306858261893
C         1.53778916784901    0.00848076214366    2.51800623699382
C         2.79997626259823    0.30419572223950    1.78294957501837
C         0.51479567853937    0.98201774539326    2.84335138916511
C         0.62911438665457    2.41609191134266    2.55074147539504
C         0.53487589477339    3.34291830810741    3.58706185176987
C         0.68550729953979    4.68695977644895    3.30361416918963
F         0.59971128136680    5.57504536513482    4.31607842013106
C         0.91905438551398    5.15879652703556    2.02465255771594
C         1.00969983507113    4.21268803345535    1.01814710981873
F         1.22437564672748    4.63717106467340   -0.24573731956683
C         0.87849157823007    2.85847194727205    1.25227255671113
H        -1.79908103807582    1.96169809870142    4.00936736935338
H        -1.26767920915291    1.15662904450611    5.49453877102618
H        -2.42633209720420    0.36362062055366    4.44211857209742
H        -0.42211808560994   -2.98254213228738    4.60745937614066
H        -0.12764470008940   -1.80102371836775    5.88067239430030
H        -1.66493859620672   -1.79021096355808    5.01992653158099
H         2.75026485460373   -2.17781163774752    4.29286402545019
H         1.59386068969101   -3.28361119674615    3.55372118076779
H         2.81185745962086   -2.48694785962716    2.55585586642823
H         2.66963280757479    0.16627123355374    0.71000078328239
H         3.08700854101602    1.34082175594812    1.94655542022424
H         3.59949408891008   -0.34808464630029    2.12311114684021
H         0.37517992641438    3.03313605429729    4.60609001432906
H         1.02719814082622    6.21116990114031    1.82201034794951
H         0.93481572504822    2.16188493377762    0.43092309537118
C         2.69295616719927   -7.95845993760251    1.38746842973308
O         2.89669048704175   -6.65393316962284    0.87602458282273
C         1.92894563643216   -5.73617372054468    1.00894124385749
C         0.71337515265622   -5.93339256295642    1.65764544580515
C        -0.23227362174125   -4.92713275414439    1.72333437250693
C         0.04184128240633   -3.67889633228088    1.16726701323039
N        -0.88852572238103   -2.64541738253953    1.19463061752296
C        -2.14257590564260   -2.89559617690835    0.95167319590804
C        -3.03595464300812   -1.78739695935208    0.88722351966200
C        -4.36493021498394   -1.89149668714137    0.46645094826543
C        -5.11243004551223   -0.74174681825351    0.34751629636823
C        -4.51097538212599    0.49699829751508    0.60295805735375
C        -5.33255151217104    1.64335602078197    0.55973384963612
N        -6.06180877949870    2.52897549123269    0.55172973823244
C        -3.15135090492342    0.54102432788021    0.97355064822483
S        -2.24288263845318    2.00661911847976    1.23896003736885
C        -2.90375036514810    3.20214366950004    0.04408276221628
N        -2.46166543037363   -0.59068846522158    1.16494974175710
C         1.27547914069755   -3.45041952504137    0.53992606715179
C         2.20643343132812   -4.46254972450312    0.43053534643467
O         3.39686479797335   -4.35692172635973   -0.19310435058850
C         3.72597877545377   -3.13148613856257   -0.81903707338042
H         2.56566622286120   -7.94267464678323    2.47300123204953
H         1.83059358810378   -8.43822521106991    0.91764140774391
H         3.59618178163791   -8.51083480048841    1.13683807949534
H         0.49314171833836   -6.88383256847722    2.11449901215475
H        -1.15974889942001   -5.09932397436421    2.24571692836812
H        -2.48346821046387   -3.89338531659182    0.70553929987326
H        -4.78433238376294   -2.85809527949022    0.24410704580562
H        -6.15258153132899   -0.77412343947142    0.06176117694685
H        -2.08091596118173    3.88620320497241   -0.14520046119440
H        -3.17013542633194    2.69001608790010   -0.87399348601331
H        -3.74959002567266    3.74218264922962    0.45542595147145
H         1.44326388194561   -2.48307381569066    0.09467489971718
H         2.99727384114378   -2.87066833994551   -1.59067011686510
H         4.69966781500470   -3.29165472641448   -1.27673794993423
H         3.79404133829011   -2.32003174888484   -0.08996873437283
Cl        0.05399169872558   -0.23532378318003   -0.52416248953992
