57
 energy: -84.057748687685 gnorm: 0.000456373492 xtb: 6.4.1 (afa7bdf)
Ir       -0.35063125211787   -0.94477771515862    1.49622158975663
C        -2.09553633001481    1.46124550277145    3.24758562529506
C        -0.89327506683996    0.60427023332065    3.03647410118693
C        -0.64427704893650   -0.65494436474673    3.69783801718695
C        -1.57237346121662   -1.32538371686446    4.65402492057629
C         0.74580604469796   -0.97233481486391    3.53388763763820
C         1.47340216071306   -1.99361120703334    4.33307193615384
C         1.32196817886479    0.00672647024398    2.66585249596100
C         2.77393321025322    0.21565671465427    2.39217688710855
C         0.30994938402903    1.00445339278341    2.39141882384962
C         0.57575726715536    2.30655436046193    1.72232711784320
H        -1.90075658693673    2.11568431872132    4.09891881927231
H        -2.97594135005404    0.86898632330977    3.48088436963928
H        -2.29472150679802    2.09631439707681    2.38748994546290
H        -2.60806974938100   -1.21711573043678    4.34400921895281
H        -1.34315039389987   -2.38306868670734    4.74655829558583
H        -1.46295401697719   -0.86790373870352    5.63814550007990
H         0.89229561722607   -2.90510763726816    4.45020804368857
H         2.44586092406088   -2.22327874254327    3.90811712474768
H         1.63812746007824   -1.58034131972718    5.32985621305926
H         2.93249321323885    0.56335602326651    1.37355357777850
H         3.34674278143019   -0.69141136144240    2.55890457599955
H         3.15226638465441    0.98379543085321    3.06763568951805
H        -0.34348093517267    2.84629507748491    1.51735045332471
H         1.10692316254855    2.15846041288431    0.78447410476092
H         1.20394027899718    2.91715104488292    2.37149369683861
C         6.74446853712911   -3.27005576758013    1.80877589526252
O         5.54776239563303   -3.68335127755723    1.14513993691733
C         4.37601296794456   -3.33839263736422    1.65963287032010
O         4.23312920050730   -2.70614523389899    2.68127586686940
C         3.24580856884378   -3.81918238841660    0.78934358245707
C         1.93235196169527   -4.23934298918532    1.47414062219067
C         1.16495793059556   -3.54208589495835    0.33435054173848
N        -0.05970542201185   -2.84178172632548    0.61391747166022
C        -1.12080060892966   -3.31921364002096    0.05636554070047
C        -2.34828225946118   -2.58453658148555    0.13391598289103
C        -3.53669139989969   -3.00538748531321   -0.46537287390414
C        -4.63801376733003   -2.17209143691828   -0.42949403156639
C        -4.50776799632021   -0.93119746824699    0.18393134965150
C        -3.29803930485756   -0.58366674267513    0.75954399174910
N        -2.24244375283291   -1.39270624855515    0.76237083684709
C         2.43708068228790   -2.72958299026311    0.04839474038636
H         6.49930364354320   -2.79170734916603    2.75774569119139
H         7.35354313364517   -4.15716681162900    1.97379862180481
H         7.26952132924139   -2.57146642263062    1.15773868085499
H         3.62860225874092   -4.57266944288235    0.10237226226619
H         1.75678825926741   -5.30437793274111    1.59423959503600
H         1.80695527496665   -3.72407680486186    2.41991076645044
H         0.99250340295997   -4.25503463547041   -0.47853273211089
H        -1.09279046673339   -4.22861661344710   -0.53658510541143
H        -3.57402415778433   -3.96546321596241   -0.95391871525071
H        -5.57145389526789   -2.47083204408148   -0.87944621983492
H        -5.33269902808158   -0.23850716359303    0.21796008064819
H        -3.17629581474838    0.37961104217309    1.22711783736928
H         2.67632179442676   -2.55473332282994   -0.99595500343204
H         2.43238367602459   -1.78772186080184    0.58936321199814
Cl        0.13394248719988   -0.16662258053132   -0.70741207701984
