69
 energy: -119.003188345366 gnorm: 0.000808769130 xtb: 6.4.1 (afa7bdf)
Ir       -0.66723845439927   -1.06217721945618    1.16405570743937
C        -1.77783971612392    0.47063084558437    3.95619320213349
C        -0.62015980032343    0.02525842600641    3.13210910799191
C         0.07249040316411   -1.21553951150846    3.27578551674641
C        -0.20112435163731   -2.25946565902903    4.30141437946542
C         1.21334943190316   -1.19666042347273    2.39412794769766
C         2.33365444515696   -2.17993248769623    2.41790130262459
C         1.21952124868000    0.04766781921489    1.70023098167368
C         2.31210951622821    0.54949478162805    0.82310974301502
C         0.05306827681250    0.79420542610396    2.11738828605358
C        -0.18501238391198    2.20574105102312    1.78195272711455
C        -0.30464563612246    3.15276945566319    2.79763287274257
C        -0.46725949407295    4.48240897572695    2.45851546168440
F        -0.57694475882451    5.39306298389660    3.44797550563154
C        -0.51885082514897    4.91802294752491    1.14639890037981
C        -0.40138689721737    3.95304749137541    0.16090433245432
F        -0.45174303139341    4.34117138132480   -1.12951877678481
C        -0.23713662771675    2.61188579966197    0.44910515877423
H        -2.27797335710455    1.32171061607325    3.50311661459805
H        -1.42073448501885    0.76413589745433    4.94405034323337
H        -2.49623012071534   -0.33401699426157    4.09443021171139
H         0.04589255805278   -3.25010605585307    3.92645218199103
H         0.42023273649305   -2.06834153782173    5.17701978519702
H        -1.24122846195858   -2.24363886625090    4.61342334312883
H         3.02744478726163   -1.90402303249595    3.21303055267353
H         1.97509939274158   -3.18611061637127    2.61653731308088
H         2.87443636659071   -2.17726716458780    1.47676011943270
H         2.25114919102495    0.10455472056937   -0.17019452277715
H         2.24312326466922    1.62884061594313    0.71081503972785
H         3.27824920028320    0.29233464779001    1.25321474591894
H        -0.24299654005201    2.87437973223653    3.83649345607745
H        -0.64162066824609    5.96022949545459    0.90351968474773
H        -0.16437299623186    1.89328253945231   -0.35257566859138
C         3.31845965762969   -3.90561256099366   -1.50015946004419
O         3.03152599839882   -4.97991581802167   -0.62142987160923
C         1.88534976533501   -4.95799696800114    0.08001685788164
C         1.65144013137749   -6.06589203226272    0.90655531857052
C         0.49324630685102   -6.13710731695404    1.65362462954063
Cl        0.21457199625308   -7.51629524460636    2.66938458663977
C        -0.46213872281949   -5.13121970925722    1.60537260684337
C        -0.21531652638721   -4.02809754066766    0.79458547054745
N        -1.14856806515770   -2.98100950761007    0.72663513322153
C        -2.37571222241766   -3.21805755369644    0.38864176340079
C        -3.25669219100116   -2.09406009674963    0.33485849929377
C        -4.58883539042625   -2.14078944834840   -0.08856119288309
C        -5.32751024065972   -0.98200514271664   -0.12600646086934
C        -4.72655238992871    0.22905134937148    0.25891815119921
C        -5.45007425274184    1.47002002728919    0.25860029366888
C        -6.73901100350784    1.77386080755335   -0.13449726781246
C        -6.91092809524194    3.14972362776682    0.10067580473908
C        -5.72635325300028    3.59266854127009    0.61967849395881
O        -4.84389860931898    2.59523003332542    0.71657845571893
C        -3.38367816350965    0.19374709635161    0.66232292068586
N        -2.67741718582729   -0.92246497364116    0.70667826045544
C         0.95004451921172   -3.92756442333378    0.03963627149178
H         2.55321964197321   -3.81122137424995   -2.27376940234736
H         3.40956750622580   -2.96279018452155   -0.95581211616580
H         4.27270393150335   -4.15365565812758   -1.95953388148231
H         2.38782313519124   -6.85121747481831    0.93851145868447
H        -1.35967496356232   -5.19530392137667    2.19697103851837
H        -2.71034778703174   -4.21394257723251    0.12277118462311
H        -5.01599656591321   -3.08510179331198   -0.38494010680279
H        -6.35550316648764   -0.99845387092121   -0.44729637925096
H        -7.46830815481565    1.10576065689283   -0.54293951656994
H        -7.78873821986569    3.73189543574308   -0.08727827097795
H        -5.41409799131941    4.56488582466970    0.94614563809962
H        -2.88731931764432    1.11007645568065    0.94782461410355
H         1.07964172258234   -3.05928022933551   -0.58562888751569
Cl       -0.32144004675559   -0.73928151620573   -1.16297519450191
