78
 energy: -116.011299159633 gnorm: 0.000300037452 xtb: 6.4.1 (afa7bdf)
Ir       -0.88785094804588   -1.52935481341507    0.51523603987930
C        -1.09704879850509    1.18019910063599    2.69076600474084
C        -0.30526057333072    0.10488025750389    2.02670893381012
C        -0.12974786751294   -1.21832564569717    2.58338058674348
C        -0.67689579276821   -1.65874752061021    3.89939982266914
C         0.91545126965014   -1.87431677950793    1.84481764036378
C         1.60528215451037   -3.13005038199512    2.25026686387660
C         1.26743920395949   -1.03322778522825    0.75305436201998
C         2.39503629852719   -1.23528594260470   -0.20030258787812
C         0.52099721200423    0.20939741511297    0.88179381054665
C         0.79416270587206    1.42122922483946    0.05432450928565
H        -0.60616779323597    1.44250207318381    3.62850087064050
H        -2.10561614783625    0.84645587148832    2.92450342483893
H        -1.15924969920580    2.07158436755279    2.07497368080605
H        -1.68587614200983   -1.28420276603690    4.04925823098214
H        -0.68488595733146   -2.74191526751775    3.98062245020377
H        -0.04767038829016   -1.26459886027953    4.69845443401910
H         0.93214897807617   -3.80830594784153    2.76739682462764
H         2.03065152029971   -3.64447357732201    1.39304147910538
H         2.41786868283109   -2.87372911833617    2.93111771543806
H         2.14453737470678   -0.83448604298625   -1.17932664744306
H         2.63999212014713   -2.28843457255233   -0.30595006457035
H         3.27731438939551   -0.70994155345084    0.16716270451747
H         0.14615117964311    2.24841203070454    0.32938941360703
H         0.65639542103228    1.20274256436787   -1.00375012557625
H         1.82979275030338    1.72854970096829    0.19808734613188
C        -6.67420070374726    5.40405236627000   -0.43508800524761
C        -5.51206581008801    4.42906603796219   -0.32898747962767
O        -6.06096306877308    3.13425185326955   -0.10759079405975
C        -5.26093073671497    2.06657831867850    0.01196858687082
C        -3.84904301463633    2.10483683905731   -0.06292504229304
C        -3.11059801681433    0.96492386562422    0.09063668056848
C        -3.72330836918516   -0.28328565120632    0.30812857609239
N        -2.97864501245890   -1.40382630232248    0.44516072180110
C        -3.59365133343791   -2.59736371189722    0.47412236840567
C        -2.70790466228141   -3.71517975948000    0.41080402152631
N        -1.44039383874938   -3.45463195487052    0.32927254500779
C        -0.51352571750107   -4.49387374271867    0.17753341212813
C        -0.58536461731597   -5.64454849333783    0.96308886395770
C         0.34960664425589   -6.64675376936075    0.77845458682268
C         1.33543088375390   -6.52245230873768   -0.18477996869168
C         1.41432143240176   -5.37850986185841   -0.98223778429896
C         2.44414859066529   -5.24986126412874   -2.02245150027215
C         3.73512321816545   -5.72799350405264   -1.82093798709631
C         4.70460107837532   -5.62215906273726   -2.80201645872723
C         4.39430795747603   -5.03768710361015   -4.02647379797707
O         5.25883618535255   -4.88800696449748   -5.06510766628660
C         6.57920299849308   -5.36890698883125   -4.92710898382321
C         3.09974215508122   -4.55358170433214   -4.23596475167173
C         2.14535249223641   -4.65392471343714   -3.24977683461844
C         0.48823911131439   -4.36026065608054   -0.77962414493698
C        -4.99969295656997   -2.72517022662016    0.49407803454266
C        -5.77199585523553   -1.60292531173068    0.46002048135953
C        -5.15158357912187   -0.33655203462767    0.33274064745850
C        -5.88578566040504    0.84404926261774    0.20518247085981
H        -6.29645224246977    6.40662566883330   -0.61176696036754
H        -7.32518915989437    5.11909066190778   -1.25682346378211
H        -7.25287693867648    5.39782212669849    0.48417817837105
H        -4.86031614806383    4.70398555357161    0.50959498139540
H        -4.92892229732017    4.43294225146337   -1.25815680706745
H        -3.34459579484121    3.03769363976896   -0.25588935789578
H        -2.03804486409070    0.99403599184950   -0.01153982517869
H        -3.08712487212320   -4.72837648935933    0.34890166858147
H        -1.34619434978906   -5.73446011071754    1.72300078193404
H         0.30457344567552   -7.53653702880739    1.38741869615010
H         2.04003761115469   -7.32524059448042   -0.33531182348514
H         4.00191892751129   -6.17325345053286   -0.87387306114553
H         5.69518423339057   -5.99890963373809   -2.60233119256670
H         7.07070733302018   -5.14697761994796   -5.87269717609219
H         6.59426876994287   -6.44936272592146   -4.75505658506073
H         7.10664452163721   -4.85892741980280   -4.11532555893652
H         2.87043456949770   -4.10447421817974   -5.18936366883556
H         1.14825598099440   -4.28783985474488   -3.44096889352393
H         0.52003843347189   -3.46243773177409   -1.37732919111368
H        -5.43226163541004   -3.71112770399090    0.53883009992735
H        -6.84839532559258   -1.66020734030673    0.49754850780221
H        -6.96305738612158    0.81123629980935    0.23311669839117
Cl       -0.97253675935696   -1.23684375622665   -1.85626356879782
