62
 energy: -105.508097854352 gnorm: 0.000199368056 xtb: 6.4.1 (afa7bdf)
Ir        0.14200980774699   -0.72127308671574    1.74679082495155
C        -1.62407717548033    0.56799017473735    4.32494740081287
C        -0.29898860357960    0.30004499589079    3.69905320479093
C         0.52706950730809   -0.82835150290133    3.99729999099749
C         0.20287102428589   -1.83536610381540    5.04688408093661
C         1.78226812771511   -0.65679323551312    3.30951825865519
C         3.02219852988851   -1.46689808133225    3.49198780703623
C         1.74888601669722    0.59961947864934    2.63136953427562
C         2.91186807394148    1.25778318010068    1.98264338517097
C         0.43931862690471    1.17331329120881    2.82076881893246
C         0.06343711085870    2.54004091820037    2.42952040296476
C        -0.38528978791336    3.44169780497462    3.39305430180632
C        -0.69889561119399    4.73209510667428    3.00918372147416
F        -1.12864685233615    5.59859486485080    3.94853394057040
C        -0.58955056257069    5.16994993557579    1.70114902117649
C        -0.13989848850987    4.25086449548654    0.76841282925236
F        -0.02463718613969    4.64076358945375   -0.51681977322751
C         0.18833431591072    2.95095316005567    1.10277073871971
H        -2.15466473928103    1.36264963194828    3.80882079413177
H        -1.47263840882649    0.86950693590169    5.36223396945574
H        -2.24023466902377   -0.32786384128406    4.33314691587801
H         0.97452229596091   -2.59448630705836    5.12426461137252
H         0.13484283262303   -1.32229783134157    6.00691604505677
H        -0.75789844149439   -2.31147296744287    4.86370872361871
H         3.66352422294715   -0.97480806131514    4.22419496591604
H         2.80119396067647   -2.46734641783528    3.84828920815599
H         3.57088570083364   -1.54123538642673    2.55657563846070
H         3.13050447669925    0.79957768102525    1.01848966911538
H         2.71198160432921    2.31320373072686    1.81743692995959
H         3.79273338771330    1.14796365448938    2.61263371313392
H        -0.46543001469466    3.16279533512714    4.43039513000131
H        -0.83753429631951    6.18054610184788    1.42257457950405
H         0.52047038787856    2.26344351786162    0.34013545132379
C         3.63051577645430   -6.40168986513823    3.93239212776307
O         2.62989180731389   -5.41895690751337    3.72660116035869
C         2.32400272705620   -5.04663602630395    2.46775086124113
C         2.93941010464626   -5.52737998639147    1.31119831814467
C         2.53537313226295   -5.06594127901886    0.06975384009774
C         1.52304194489397   -4.13422612053307   -0.02935767838615
F         1.13803899784637   -3.70086590721464   -1.24968250157622
C         0.90378424643765   -3.61767256366725    1.11516708719291
N        -0.09398145815692   -2.63491774352942    1.02880614489495
C        -1.09298220914456   -2.81083956012094    0.22333539694280
C        -2.01614666340164   -1.72441610712622    0.07847110377451
C        -3.14268524444192   -1.75328606975370   -0.74489428934076
C        -3.94221860078247   -0.62878183247615   -0.82465003641817
C        -3.58769769482341    0.49561369821112   -0.08619298931257
C        -2.45352714660631    0.45614844533735    0.70570115936241
N        -1.68661901962737   -0.62657094063791    0.80218041639470
C         1.31098829337936   -4.09262784137665    2.35267766721274
H         4.59691021240682   -6.07043104790766    3.54485537969167
H         3.35160367849680   -7.35260919834949    3.47229185838166
H         3.69496224218514   -6.52553937524426    5.01120600893623
H         3.72630425530841   -6.26087688710754    1.36197275410544
H         2.99874882469608   -5.43191288043309   -0.83245696354680
H        -1.22961264276358   -3.73068552584615   -0.33373884284966
H        -3.36448404037054   -2.64384398694379   -1.31040420310433
H        -4.81954068945161   -0.62064765854777   -1.45184080263316
H        -4.18120070957176    1.39429705581411   -0.12192968588177
H        -2.15123645704690    1.32143393685301    1.27663577339833
H         0.81190674111237   -3.75059310016675    3.24228552811000
Cl        1.02695641797032   -0.30131148675142   -0.41987642733831
