66
 energy: -106.940142705186 gnorm: 0.000685669788 xtb: 6.4.1 (afa7bdf)
Ir       -0.58815475385238   -0.68389490301352    1.65702916078957
C        -1.92706280341191    1.27782741857520    4.25066435923589
C        -0.77844014289987    0.60224810223172    3.59322432851014
C        -0.48923675925723   -0.79269174890128    3.87306744859499
C        -1.26302160051737   -1.64193801996070    4.82187688481588
C         0.81092786774799   -1.09255684503352    3.35937583915881
C         1.63639256646298   -2.27569449400765    3.71939162835071
C         1.24819813163498    0.05407667554000    2.61404084438482
C         2.60594565690900    0.22657573566705    2.02873635556475
C         0.28753300546480    1.13577682139512    2.81729982542332
C         0.66770202868410    2.56133936904036    2.50071966910577
C         0.40985303132648    2.97703064569744    1.04481439772110
C         1.07169519137594    4.32266020830948    0.76400464226471
C         0.54836379673617    5.39331854119299    1.71767582358090
C         0.74509683857950    4.96087617898185    3.16827821762536
C         0.05429873232737    3.62159844083835    3.41954368929918
H        -2.81076989139901    0.64490950538564    4.23173859130478
H        -2.16881744860135    2.23185518781124    3.80355447237074
H        -1.66564994728869    1.44022442800092    5.29739731875614
H        -1.01621322060095   -2.69196650133210    4.70040857082222
H        -1.01483083693486   -1.35070579766847    5.84264267538795
H        -2.33343873008846   -1.51303429951047    4.69095818193490
H         1.03167551694634   -3.16639154454084    3.86409414754178
H         2.39998356065512   -2.47937454974868    2.97501879728058
H         2.13808223020585   -2.05400869770759    4.66305445633073
H         3.05630993657575   -0.73241075075629    1.79144656310021
H         2.57105109442370    0.83320706993429    1.12819139767580
H         3.24410605284018    0.73068099116293    2.75583483425861
H         1.75445685748381    2.60192465328152    2.65004061227711
H        -0.66370321404773    3.06263148910999    0.87928520379620
H         0.79740993481195    2.22561440464657    0.35875010784016
H         0.87418994286316    4.61734184943440   -0.26849099841823
H         2.15446004207425    4.23144016737760    0.88008225055345
H        -0.51528881642689    5.55592795904791    1.52987743054574
H         1.06578989403436    6.33756122912120    1.53651984015551
H         0.33127832385130    5.71691708312175    3.83787991920211
H         1.81291437448750    4.87633312946793    3.38343317791713
H        -1.00493591102255    3.74578183417303    3.19844125722192
H         0.17259560496371    3.33459718230367    4.46460340474532
O         3.87266790777828   -6.93344721443448    1.25468161298573
N         3.93813493094290   -5.82917185268400    0.74935342199930
O         4.92525278845450   -5.38937029493978    0.19158114684182
C         2.77180270068871   -4.98979749657815    0.81370206330188
C         1.62126911007933   -5.46739905054823    1.43410864802126
C         0.49562011528676   -4.67041401915487    1.48077093237913
C         0.52621055313346   -3.39152757228265    0.91781326418814
N        -0.61184507394792   -2.57426969884785    0.93942814316558
C        -1.72900326564923   -3.04838272273954    0.48547555302382
C        -2.84591805033477   -2.16254680656539    0.41222324415243
N        -2.63285653546034   -0.90922409537151    0.88362696588039
C        -3.57768314501753    0.00217059231037    0.67151593176756
Br       -3.22070395413767    1.76830284864700    1.16597379552447
C        -4.80440342401263   -0.27984326820986    0.08111412989726
C        -5.06423368914930   -1.56983271443228   -0.35372307975629
C        -4.05914730651832   -2.50636948076490   -0.19893514975836
F        -4.22025294554603   -3.75410565115736   -0.64250212943105
C         1.69009343915788   -2.91430673590548    0.30975202944111
C         2.81046657823972   -3.71717627262890    0.24879487186074
H         1.62504477351429   -6.45723630068901    1.86360520439769
H        -0.40104284463307   -5.02775059069254    1.96289637001634
H        -1.80768307430098   -4.05345882768964    0.08539413391112
H        -5.53699955660167    0.50326624339087   -0.03511171653027
H        -6.00094835483452   -1.83752800835450   -0.81654775634885
H         1.68451014449955   -1.93197365410596   -0.13703347296021
H         3.71603479114684   -3.37845598814041   -0.23051822814464
Cl       -0.19437074988515   -0.01719951611366   -0.60392125684756
