65
 energy: -115.371246984201 gnorm: 0.000690950965 xtb: 6.4.1 (afa7bdf)
Ir        0.31529358866130   -0.08692018438004    1.29231816293897
C        -2.07233991598311    1.30459191086657    3.22940216052087
C        -0.70426010315833    0.74771221199927    3.11203014311388
C        -0.35725999123027   -0.63374433492197    3.37527728015552
C        -1.33448436396918   -1.68235133672111    3.77636110279818
C         1.05182697759807   -0.74424825139496    3.28202974430014
C         1.88543376489653   -1.91892695888328    3.65057214442768
C         1.58296898803828    0.59803853555975    2.98965264636872
C         3.02834828928419    0.93813373577723    3.03320306705329
C         0.50089206063141    1.51359650909301    2.96307893862012
C         0.58777682855110    2.97725952671659    2.87230872420204
C         0.00359057005660    3.75922570079608    3.86585626226679
C         0.10559345793133    5.13510303508664    3.78576701583748
F        -0.45883943513165    5.88225023184507    4.75493445551385
C         0.76451067959188    5.77592976270491    2.75143124439327
C         1.33080460950928    4.97228889358674    1.77813349025844
F         1.97638041495756    5.55302737533435    0.74782131892278
C         1.25647263714915    3.59278246754565    1.81638087907502
H        -2.16214809254929    2.26004125745669    2.71749683941991
H        -2.29622035457544    1.46295089073834    4.28584983849333
H        -2.81739893913109    0.61055572633236    2.84889992982282
H        -0.84702379073086   -2.64564292508311    3.88322455082426
H        -1.78487004597316   -1.41089029699555    4.73027307767284
H        -2.12970688287030   -1.76703352218274    3.03743927142494
H         2.11519281345444   -1.86335392113676    4.71557277256781
H         1.35816745806655   -2.84949759665257    3.46396633393853
H         2.82492105992125   -1.92951398233840    3.10698915445723
H         3.63335555038696    0.18110072408510    2.54193801982389
H         3.22415319346878    1.91489157338073    2.60219086644568
H         3.33481635055566    0.96425420995476    4.08039659081701
H        -0.50525514375780    3.31303625650551    4.70446249520259
H         0.83177176151912    6.84987059411597    2.70576153095265
H         1.70007883348099    3.02026181711551    1.01688167765411
C        -4.94409862863041   -2.16421652042117    1.81409769492258
S        -5.26738370948425   -0.47121399383259    1.23300194750124
C        -3.73571836477995   -0.05624298378268    0.53436800505864
N        -2.74909474897892   -0.92877036177873    0.59952478972941
C        -1.58592462775524   -0.66608716561719   -0.00830742063479
C        -0.48841360261500   -1.59313705629489    0.21695379770311
N        -0.30122074929439   -2.75748658791140   -0.11412086583687
C         0.53842103818265   -3.80436801562575   -0.00021101144018
C         1.55664149196998   -4.00279379175508   -0.94709289206032
C         2.32433957508570   -5.14102618377265   -0.90124337741657
C         2.08428697712584   -6.10171480788212    0.08404651435179
N         2.86057443580117   -7.28910686229929    0.11320159700215
O         2.63240240404776   -8.11226645299732    0.98962364716468
O         3.72103867126213   -7.44356861902937   -0.74321584587374
C         1.07659291277067   -5.90991672517160    1.03279041917487
C         0.30799181708799   -4.77277762834212    0.99110230209542
C        -1.34840149701614    0.54379478772524   -0.70719375865927
C        -2.37594599210683    1.48537752778903   -0.73338343859444
C        -3.57884722532121    1.21033754577402   -0.10039817266154
C        -4.63229907202308    2.14787319150681   -0.11083131609425
N        -5.47595142896144    2.92537863585007   -0.11522878821136
H        -4.24060967441905   -2.63117779039201    1.13410624233849
H        -5.89959812023025   -2.67823686910099    1.80351633652194
H        -4.55235553566300   -2.12682436213952    2.82508294433657
H         3.28807326930520    0.13047403232717   -0.10811125752392
H         1.72643697014926   -3.26183681711343   -1.71138882337954
H         3.11303031213161   -5.31136862414101   -1.61700510511195
H         0.91682128896012   -6.66651460897364    1.78523359955862
H        -0.48228762265677   -4.61603502917433    1.70668987067955
H        -0.49861533325898    0.67493786806430   -1.36458831963296
H        -2.25001841748147    2.42076352226432   -1.25792760284088
Cl        2.07916135813950   -0.07757888969931   -0.43877144245817
