76
 energy: -117.265622563112 gnorm: 0.000958101086 xtb: 6.4.1 (afa7bdf)
Ir       -0.53573120513732   -1.08188181953151    1.37775841877085
C        -1.80707826232647    0.90890995242179    3.85373785437385
C        -0.64270034532009    0.23075163901427    3.21561236320262
C        -0.22601886502541   -1.09939497133507    3.58234065422841
C        -0.85243944340477   -1.93293999358682    4.64687418338296
C         1.05787339719985   -1.34744522369025    2.98117032948959
C         1.94725537152127   -2.49088457727429    3.32594448631235
C         1.37579915710261   -0.23265337514971    2.15952393442128
C         2.66199491758799   -0.00244478243434    1.44262117658329
C         0.31363297257238    0.75818529710903    2.29748433262551
C         0.45465812686987    2.16754215224664    1.78764160062929
C        -0.73697193661164    2.68755141465386    0.97645711404795
C        -0.41715512126785    4.07692595665070    0.43052564087793
C        -0.10322045242248    5.04080559282246    1.57249228499910
C         1.06104840590793    4.51891570311204    2.41067474422491
C         0.75550116740462    3.12505023797626    2.95246094719998
H        -2.68398428607948    0.26496558824268    3.85402701431860
H        -2.04930422711628    1.84779564532919    3.36988581035329
H        -1.55283350312159    1.11656290080414    4.89380454376500
H        -0.62073276707380   -2.98438405033262    4.50601310100401
H        -0.45764954900601   -1.62724010893226    5.61639340607727
H        -1.93087788971130   -1.80640561152878    4.66673474219639
H         1.38349971969839   -3.41204695324199    3.44699393685305
H         2.71181760986581   -2.64481200190781    2.57068561569663
H         2.44275511216508   -2.27001635132862    4.27232348578658
H         3.25184729408936   -0.91243804960076    1.38600177013655
H         2.48366833466360    0.35562717345924    0.43049113302385
H         3.24358789243652    0.75165200059264    1.97286696855438
H         1.31782140980832    2.18307961404737    1.11610282122485
H        -1.62638076056027    2.76297363703583    1.60294925178690
H        -0.93562639446790    1.99859422286408    0.15352200638251
H        -1.26289512295236    4.45226286321636   -0.14910406039898
H         0.44140911799266    4.01652166285022   -0.24167892721175
H        -0.98508468736674    5.15557171865080    2.20702558095232
H         0.14372291216116    6.02446988701392    1.16889348642908
H         1.25505489508762    5.19957444251291    3.24202906241703
H         1.96224970976669    4.48322478730192    1.79421712780613
H        -0.10165291297325    3.17946379932703    3.62367908747996
H         1.60777152767258    2.75399189930284    3.52448173000935
C        -5.06776004849264    2.19912576393332    0.65776949874262
O        -5.43892732901866    0.93789089773869    0.11850705729601
C        -4.59369610455131   -0.07996849823343    0.16809137744493
C        -3.33200277565640   -0.06101897350750    0.76825186655294
N        -2.51771262364730   -1.11154800858023    0.77697582366388
C        -2.90930803376731   -2.26246450444877    0.18050438428120
C        -1.92035421865274   -3.29208885291735    0.18882077552262
N        -0.76995276403210   -2.99580105594234    0.70837953269210
C         0.24798845744267   -3.95546216625489    0.74155472429115
C        -0.00544713500858   -5.25180076979691    1.21042686716042
C         1.00611645940441   -6.18191347136661    1.24140869898053
C         2.29752839213870   -5.86445792195742    0.79900360934484
C         3.40184387048499   -6.79807033536610    0.79149637044080
C         3.20738901821045   -8.19338153055931    1.27674225972727
C         4.59916987884925   -6.36238430030723    0.33284771687706
C         4.82233772557805   -5.01359954242249   -0.13862405963142
O         5.87550544488289   -4.57735933988294   -0.55021938912193
O         3.75264168804699   -4.15983373811027   -0.10655583712847
C         2.53723427741096   -4.56016399246926    0.33128010956325
C         1.52018758608331   -3.61020321062615    0.31134151081410
C        -4.16662839168310   -2.38094993140123   -0.42300656953819
C        -5.00745811712603   -1.29438100976836   -0.42780552574705
Br       -6.72806098187178   -1.36573973894095   -1.22868666896929
H        -4.16127340174128    2.57575427431440    0.17941632956166
H        -4.93007697996702    2.13334610675321    1.73883428304137
H        -5.90223843378526    2.86026661583705    0.43589843095266
H        -2.96475873725537    0.83251201352818    1.24673267263573
H        -2.11260684072031   -4.25610124015720   -0.26705255651283
H        -0.99077437973619   -5.50681800309027    1.56743715777884
H         0.80224189303540   -7.17438777652902    1.60885579978176
H         2.43689212476148   -8.69226878053133    0.69185593877289
H         4.13139344375908   -8.75678264280833    1.19062806121905
H         2.89497773400676   -8.19056460968120    2.31950338383949
H         5.46334011658682   -7.00645890617373    0.29584776776925
H         1.72009492425503   -2.62305367304866   -0.07494539950703
H        -4.45943617665912   -3.30849723500197   -0.88751169522040
Cl       -0.10927188115017   -0.50914983089559   -0.90293806739743
