67
 energy: -109.728376367584 gnorm: 0.000572907039 xtb: 6.4.1 (afa7bdf)
Ir       -0.96079109090984   -0.79930527486217    1.05555566979683
C        -2.22122097934914    1.29849150084928    3.50950075869299
C        -1.09360715859687    0.52119159920927    2.92274100078491
C        -0.79091405821682   -0.84522141277813    3.27115441150709
C        -1.53396366101693   -1.65254983514443    4.28041008058318
C         0.50992866340003   -1.16250121001602    2.73719827780582
C         1.31554714584638   -2.36110310898788    3.09869187508176
C         0.93985149060690   -0.05751033691772    1.95413415285989
C         2.27170546882170    0.12852268510274    1.31319627407601
C        -0.05676518052120    0.99532008458613    2.07383634295161
C         0.16321295561544    2.38879522498104    1.58732900604366
H        -1.99864414451158    1.48884234433910    4.55991474393360
H        -3.15353548566067    0.74126969544949    3.46271339485962
H        -2.35767285314728    2.25124452625980    3.00902710624490
H        -2.59999388662467   -1.44684463602154    4.23902359988838
H        -1.37159808257264   -2.71621448744319    4.13027593609125
H        -1.17766664663755   -1.39476444828344    5.27854033104826
H         0.68748007980888   -3.23100376927619    3.27053566955058
H         2.04453170749152   -2.60154282185851    2.32996073761577
H         1.85541869930428   -2.14727134877216    4.02215554425462
H         2.16226267570570    0.58238554699628    0.33069260823294
H         2.79625319210431   -0.81652469019414    1.20950319713092
H         2.87720419889520    0.79549666765339    1.92733768700302
H        -0.68688307803679    3.02887406803192    1.80354683560735
H         0.35222403197010    2.39757974177552    0.51500561330669
H         1.04196865283568    2.80293565398891    2.08135175622313
C        -7.34624918907784    5.50733931905551   -0.24678754351399
C        -6.09942058555419    4.65975508486250   -0.04976945523724
O        -6.47757670407090    3.29422929715863   -0.20115447579061
C        -5.57446531900276    2.31958138639679   -0.05588150896653
C        -4.20495641275916    2.52721079921255    0.23721596279802
C        -3.35556420008215    1.46880213304502    0.39527963801230
C        -3.80200124038738    0.14110574424962    0.25293513497610
N        -2.94696160988495   -0.89398022089180    0.40816838777020
C        -3.35751339616283   -2.13348479971693    0.08473625148622
C        -2.32496385982260   -3.11625834445479    0.08621072828173
N        -1.13491402687461   -2.72034376587769    0.42017627822165
C        -0.05557130026368   -3.60921374601051    0.37557731362036
C        -0.15658165423200   -4.88808363766073    0.92562299315314
C         0.92468124577504   -5.74635622236546    0.87902680756707
C         2.10640629545667   -5.33431024286786    0.27247273588509
C         3.27732179647832   -6.27522279551372    0.25699792591605
F         3.89802012995232   -6.32527736540633    1.45752836073848
F         4.22156515262616   -5.93806095164194   -0.63394115224178
F         2.92075634134407   -7.54149920392768   -0.02313713569755
C         2.21471638103933   -4.06146531184143   -0.27701956229589
C         1.13778207756124   -3.19843850074289   -0.21821497786823
C        -4.69065111645478   -2.41707238569792   -0.28481418009438
C        -5.59893562879155   -1.40277500939151   -0.34114180544045
C        -5.17105181468195   -0.07390724453778   -0.10355846415364
C        -6.02880463247420    1.01972984360885   -0.22780293253631
H        -7.09433151681904    6.55781343865361   -0.13560343412225
H        -7.75748744084798    5.34416473001140   -1.23889829318297
H        -8.10004459735997    5.24255425213337    0.48949449013167
H        -5.34236324235590    4.92002487582866   -0.79958891095695
H        -5.68734932956418    4.82113447833361    0.95361559700118
H        -3.81913573968947    3.52986614554497    0.32390818532262
H        -2.30569515400794    1.63553553223865    0.57332885147185
H        -2.51521557786582   -4.12625998127800   -0.25798224660483
H        -1.06961583632745   -5.19936374442906    1.40810049694330
H         0.85460694734521   -6.73477350400270    1.30587630245196
H         3.13507187027075   -3.75217077258947   -0.74739621624199
H         1.19780740151943   -2.21156659349454   -0.65083447330916
H        -4.96243422293568   -3.43520654405116   -0.50970317899412
H        -6.63163159399307   -1.58654538590546   -0.59256242068213
H        -7.06443546326401    0.86248268218020   -0.48292921279029
Cl       -0.42822289036004   -0.10657442688564   -1.16774347220397
