79
 energy: -125.615340139888 gnorm: 0.000599628706 xtb: 6.4.1 (afa7bdf)
Ir       -0.37198969268114   -0.67037779823720    1.46233910589470
C        -1.55934699058069    0.92446283438074    4.20795696194466
C        -0.39340330606129    0.37251491722807    3.46327045408524
C         0.14756477455960   -0.94310228901066    3.61456651536186
C         1.36743682897010   -1.01436726539087    2.84700156699291
C         2.38648564587234   -2.09839485709370    2.93775464857715
C         1.54992561456205    0.23495720685310    2.19019425476569
C         0.43633566489030    1.09307775670733    2.54015512222559
C         0.38864126665594    2.54086389453508    2.27842972774679
C         0.44365468203953    3.42974992478940    3.35069573833908
C         0.47286024750031    4.79162035791333    3.12840015526962
C         0.44410127548588    5.30807303040334    1.83316978599251
C         0.47981655492805    6.76072888143125    1.60388169512961
C         1.20186076958446    7.29786745670777    0.53939027646151
C         1.24214746620922    8.66456532368326    0.33260726884939
C         0.55734279674007    9.51943310203481    1.18074762505054
C        -0.16852581884275    8.99730179981401    2.23882982158995
C        -0.20484865945370    7.63144284626389    2.45047524045151
C         0.37809323669761    4.41298867601448    0.76581201128352
C         0.35279643189300    3.04925873793664    0.98264937870018
C         2.76247980228448    0.65132068235929    1.43354742330135
C        -0.32729694305985   -1.97268985117969    4.58106493935815
H        -1.27627232546549    1.07500640351911    5.25020103814423
H        -2.40424790563250    0.23955880537884    4.19281616003837
H        -1.86394370960219    1.88090269271320    3.79248791960908
H         3.04051545734130   -1.89406681495256    3.78645003870215
H         2.99848782794652   -2.13609835305122    2.04165608196314
H         1.92615463684313   -3.07063780262743    3.09163214721356
H         0.49321610371774    3.04984901226913    4.35963382762631
H         0.54618623693983    5.46425049475059    3.96955848000807
H         1.75373948467939    6.64406981194390   -0.12000228781125
H         1.81272052431443    9.06595772922689   -0.49262042384080
H         0.59030611470954   10.58677901895164    1.01859320506623
H        -0.70798734242503    9.65859620260444    2.90167236353262
H        -0.78576846717317    7.23609170854346    3.27071824122533
H         0.32999569078409    4.78971879198588   -0.24482428878395
H         0.29195924477989    2.36912206354350    0.14590049279861
H         2.94088018877319   -0.00342160845857    0.58293219590461
H         2.65139441512248    1.66752532594524    1.06569973222971
H         3.63165388724022    0.60191236838860    2.08966004548893
H        -1.39625427497157   -1.88517061276992    4.75452772801839
H        -0.10338889294829   -2.97546891690044    4.22568040942779
H         0.18394184987593   -1.83259543638871    5.53422527899903
C         3.68736072536866   -3.40362759569032   -1.21164232866602
O         3.34933880525377   -4.53051725271902   -0.42192284729196
C         2.17104327044705   -4.54323517128959    0.22485283110652
C         1.88270051126222   -5.70532520611218    0.95238327994906
C         0.68391289649117   -5.79529909695993    1.62365175000655
F         0.41059689204455   -6.91650988447230    2.32482278561216
C        -0.26189832975336   -4.78330752529948    1.61100309535572
C         0.04644875827049   -3.62599308054024    0.90355836243456
N        -0.86066768104438   -2.55621001026701    0.86832311074258
C        -2.06919472784282   -2.73955710593128    0.44413773113059
C        -2.92700325136695   -1.59770112525192    0.42226748381983
C        -4.23260966454101   -1.59788724793092   -0.07941706648028
C        -4.95591200991930   -0.42972753101862   -0.07974520743676
C        -4.36473365171393    0.74444159801486    0.41844323792703
C        -5.08054637197742    1.98935686213052    0.45330886194395
C        -6.35659398114710    2.31544469675143    0.03491319221171
C        -6.53058210694418    3.68083310606254    0.32166222707520
C        -5.35942285530702    4.09644137695811    0.89171408237826
O        -4.48554671457975    3.09101641875067    0.97500280510343
C        -3.04708873715357    0.66434481383624    0.89370050375568
N        -2.35612271415868   -0.46302080342431    0.90521250669972
C         1.25290932469029   -3.49604569529419    0.22104538496123
H         3.78464154445640   -2.50494239697068   -0.59764841361165
H         2.94842725953879   -3.23380369183206   -1.99825249087623
H         4.64921970795321   -3.64179176256989   -1.65985510292630
H         2.59253332357839   -6.51495310211371    0.97559166967774
H        -1.18829399372134   -4.89216935785154    2.14989934571775
H        -2.40651586941298   -3.70390647249213    0.08194815939171
H        -4.65071584671238   -2.51401952300792   -0.46399726858204
H        -5.96355665308977   -0.41011439605014   -0.45990967799190
H        -7.07725470203236    1.66815071630762   -0.41965552945067
H        -7.40078940286362    4.27396785285213    0.13256876066886
H        -5.05279142116560    5.05354562961224    1.26406840814258
H        -2.55760604200892    1.55241163190578    1.26715873115808
H         1.42853302428768   -2.58404402776198   -0.32636547088101
Cl        0.08956429164257   -0.22912489299007   -0.82905100568290
