88
 energy: -144.537189491478 gnorm: 0.000251719553 xtb: 6.4.1 (afa7bdf)
Ir       -0.88694146828930   -0.61801823749194    0.63128149619359
C        -1.30270812826558    1.66447651338356    3.21213113328541
C        -0.42816642108757    0.74642065481263    2.43594993201947
C        -0.25078124494946   -0.64397091264383    2.77273612294053
C        -0.87322250754517   -1.31734260674452    3.94908086752318
C         0.84684523050945   -1.14991625414754    1.99888538686004
C         1.56377175642786   -2.43178853865928    2.23931553331580
C         1.24052926518973   -0.13340844234797    1.08123991832028
C         2.44336156925046   -0.18247659647493    0.20186334657860
C         0.46013140212943    1.06520989138656    1.37178709917192
C         0.79906123918402    2.39163219374110    0.84544205104025
C         0.89745865309157    3.48802161950458    1.70198424551498
C         1.28494261613705    4.71101442219847    1.19006730070226
F         1.35165119478123    5.76613601517294    2.03196026232268
C         1.60810535051566    4.90191428825283   -0.13994800172217
C         1.50352961004313    3.79646300749461   -0.96478131505201
F         1.79781491029473    3.93643536010993   -2.27440430726292
C         1.10376094450420    2.55691411713752   -0.50565595455161
H        -1.44879418108775    2.60786969079857    2.69738211324285
H        -0.83304358069509    1.85506400438054    4.17845952072839
H        -2.27104509020478    1.20983584581539    3.40709578671309
H        -0.85115703432482   -2.39774951723090    3.83930050382573
H        -0.31476210767204   -1.05558361060482    4.84854730207523
H        -1.90188329533493   -0.99606875886869    4.08673025618317
H         2.38828557698153   -2.23885315502095    2.92699815230831
H         0.91361611777629   -3.17427449524644    2.69188633498839
H         1.97486044810360   -2.84152644497769    1.32091857723830
H         2.16251281250393   -0.31446383446333   -0.84202178598537
H         2.99169615959387    0.75486737165099    0.27659498830866
H         3.09392979234217   -1.00201605554501    0.49410460118093
H         0.70866284362307    3.40079386631265    2.75831988776513
H         1.90312069024282    5.86525150140072   -0.51887805778688
H         0.99330225805934    1.74415443695160   -1.20454444923592
C        -1.79464755879172    8.16210760004894    1.52466748611096
O        -2.26043265282075    6.81677464778278    1.46119525928939
C        -1.80992047650728    6.06972217561439    0.45327238506843
O        -1.05148932867571    6.47980947014238   -0.39819622918532
C        -2.32821272112072    4.67811177379830    0.49817147726167
C        -1.87776237824040    3.77150568078753   -0.45715474381440
C        -2.30223586371143    2.45714189923337   -0.43538337274516
C        -3.21807232704594    2.04046309380288    0.52714501375446
C        -3.79288136426925    0.68621088908449    0.47128630731746
C        -5.18790169011567    0.59599565329348    0.42087637388624
C        -5.80879343075767   -0.63020724482337    0.26638271733553
C        -5.01196361589748   -1.75491561702449    0.14889295199689
C        -3.63032800506291   -1.60922519315368    0.23910472362632
C        -2.73550524630747   -2.72245627991958    0.12546366540929
N        -1.46823149783077   -2.49462348941549    0.22919966283078
C        -0.57550821784691   -3.57565863729106    0.12980749115945
C        -0.77510748974876   -4.71060279322174    0.91765159038117
C         0.09861774845891   -5.77562061696610    0.80146253884691
C         1.14056930610683   -5.73258419768215   -0.10813444714747
C         1.33905675228860   -4.61086121744268   -0.91680708571268
C         2.41890665842867   -4.58502288872941   -1.91179073141852
C         2.75447177600107   -5.73744118975614   -2.62634398456198
C         3.75543460292474   -5.71760387967243   -3.57012721812034
C         4.46741608300277   -4.54259071298821   -3.82907427328987
O         5.43664889401246   -4.63269442766779   -4.77736377512733
C         6.17875813729926   -3.47631367913693   -5.10424884549545
C         4.14382247442280   -3.39029155579310   -3.11854342882450
C         3.12859664692169   -3.41915532155607   -2.18021422482351
C         0.48397850576871   -3.52117527415095   -0.76983155473120
N        -3.02243029154101   -0.40736821547176    0.42293555914686
C        -3.70182546058141    2.96101433504681    1.46034159850811
C        -3.24680890932445    4.26446296139092    1.46154018794312
H        -1.98726197538252    8.67442947762570    0.58035866349012
H        -0.72083012779415    8.17571292129192    1.72218888017722
H        -2.34055491859611    8.63034692696590    2.33876619911087
H        -1.19870091508217    4.12022689138889   -1.21869043152605
H        -1.95761127777008    1.76781896503907   -1.18856476079139
H        -5.76565150511033    1.50421537267971    0.47984271403890
H        -6.88390050979707   -0.70242322648960    0.22376480434405
H        -5.43500904014407   -2.73398336609366   -0.00496865139184
H        -3.11585326031756   -3.71650527065803   -0.08090489890732
H        -1.58920089025611   -4.73758239821628    1.62516667110727
H        -0.03730028321121   -6.64796414813872    1.42152755311644
H         1.81772891805668   -6.56855005417910   -0.18524624457115
H         2.20645329886276   -6.65248977915572   -2.46132535092056
H         4.00950692493306   -6.60301339994056   -4.13116562156047
H         5.53061718413926   -2.68177927544931   -5.48572196719201
H         6.87027892823485   -3.78473100941302   -5.88608841969021
H         6.74515869649056   -3.11004825866557   -4.24286604164897
H         4.67483488749469   -2.46756013126271   -3.28969072376047
H         2.90219445266235   -2.51639733479976   -1.63513800160790
H         0.59441954391024   -2.64905962916062   -1.39412319594999
H        -4.41803188015963    2.64696655432492    2.20409787415274
H        -3.60344005276276    4.96944306803347    2.19482245138938
Cl       -0.68406363970390   -0.32888798386657   -1.72749942503219
