68
 energy: -108.622383622043 gnorm: 0.000318848349 xtb: 6.4.1 (afa7bdf)
Ir       -0.11450577889145   -0.30530957388370    1.69525344528563
C        -1.73893969784215    1.47884642576932    4.13109428871650
C        -0.48440733454769    0.90084326524298    3.57187197564697
C        -0.02795744108592   -0.42502926812950    3.90809396931282
C        -0.71094442099114   -1.35380880676190    4.85166849902375
C         1.32425847271108   -0.56643376577085    3.43460746452268
C         2.24610810458330   -1.67105615659190    3.81250211526735
C         1.65227898884051    0.60408887182314    2.70071973966560
C         2.98744816352587    0.92850334862211    2.12556065700491
C         0.52388080485682    1.52716529697584    2.77944960000354
C         0.62480592713545    2.96501389216237    2.34717100541350
C        -0.52840220191335    3.46086266880435    1.46801152084373
C        -0.25821306869858    4.89548553743902    1.02182774983525
C        -0.09272172332257    5.80946779601827    2.23377366790272
C         1.03852367375174    5.31073742276333    3.12932565005407
C         0.77957211219342    3.87474529215860    3.57723884700534
H        -2.57297403605433    0.78835126649087    4.02503287602473
H        -1.99833883586076    2.42492162450859    3.67083401683926
H        -1.58829219805097    1.64808097793403    5.19818946330219
H        -0.38988605695708   -2.37950825500510    4.69257354151564
H        -0.45371703338677   -1.07581320503997    5.87453700621991
H        -1.79116628354130   -1.30032140637160    4.74998911129796
H         1.73210191375707   -2.62806305149456    3.85471968898513
H         3.08232033756542   -1.74999543273203    3.12498383995851
H         2.64329572971330   -1.45992382935288    4.80604817481705
H         3.56774720342365    0.02768077782383    1.95098862362448
H         2.88969424570816    1.45712043737061    1.18059710111018
H         3.53485485399738    1.56565564512721    2.82037906353222
H         1.53672428672158    3.06256540903066    1.75064571847819
H        -1.46960049725955    3.44640292891687    2.01726204415148
H        -0.62228919206420    2.81180484351223    0.59559499478725
H        -1.08350439075947    5.24885726728661    0.40034971700032
H         0.64992625326574    4.92778598911700    0.41572660418194
H        -1.02480739479178    5.83290001219746    2.80355814010995
H         0.11779651207542    6.82834841573019    1.90313942251391
H         1.13213044840818    5.95587303673896    4.00523904613579
H         1.98154109085588    5.35915489537873    2.57988377392405
H        -0.12685747481734    3.84281033258874    4.18192728663431
H         1.60873745304076    3.52309324174007    4.19357979406669
O         2.61561318350091   -1.70185541112682    0.19454767505889
C         2.21686819839116   -2.84199899806774    0.74284294218933
C         3.19968252427733   -3.81030783588480    0.98815868876105
C         2.89499141184697   -5.03016084535537    1.54674826761356
C         1.57158982230209   -5.32184641146383    1.86973060403515
C         1.19275991290030   -6.62691685448489    2.50321449355859
F         0.11080469909957   -7.18494125042728    1.92369441621542
F         2.16479738546296   -7.54625052696541    2.46306608901774
F         0.86414757044045   -6.48100752369916    3.80771140160848
C         0.57509313593219   -4.38862333886732    1.63723712077783
C         0.88180666004563   -3.14507858247478    1.08837517190530
N        -0.15106604040172   -2.20945084217613    0.92340817521658
C        -1.23372456296740   -2.55756859319788    0.30488118873340
C        -2.29106859709948   -1.59185142031441    0.24389585731672
C        -3.48335032300307   -1.77738323679391   -0.45668255534039
C        -4.42243797432207   -0.76218479380418   -0.46368538473506
C        -4.14132546067043    0.41079116074309    0.22781197509460
C        -2.93608645174285    0.52738196351932    0.89996398495146
N        -2.03002422305984   -0.44546614036789    0.91938343743829
H         1.89396144416481   -1.09276221111949   -0.08969479347260
H         4.21493676823101   -3.56698355913404    0.72025354726347
H         3.67067227501619   -5.75617191984307    1.72966249059258
H        -0.44580739461074   -4.60944809931789    1.91149607913899
H        -1.33172742821780   -3.52668503460604   -0.17090721283856
H        -3.64921438987949   -2.70095396641066   -0.98737374933932
H        -5.35182551909909   -0.87708320157643   -0.99881549874880
H        -4.84466656461042    1.22717121632453    0.24829819507693
H        -2.68818568482121    1.42968974624872    1.43731508254490
Cl        0.47791910760581    0.36427634249257   -0.54278093422021
