66
 energy: -112.580701827838 gnorm: 0.000325937082 xtb: 6.4.1 (afa7bdf)
Ir       -0.24109040256610   -0.87974184336247    1.54419392331544
C        -1.75998931676153    0.71345825295147    4.10680911567061
C        -0.49185494352065    0.34266093136316    3.41830455104411
C         0.30915117763863   -0.80479234028867    3.71424227490036
C         0.04687388421658   -1.79104018677839    4.79951265013736
C         1.52978498032010   -0.70749441540284    2.95127513763020
C         2.74828447525102   -1.53916233015155    3.15968020447157
C         1.45979483177977    0.46405269341654    2.15005483840877
C         2.57875690759898    1.02635157719352    1.34725013601054
C         0.18354734590328    1.10404308971941    2.40454110289412
C        -0.18395249854691    2.45402608210791    1.94622626544197
C        -0.42151292716550    3.45864740836067    2.88272692292089
C        -0.73021361519407    4.73042584846742    2.43811355371300
F        -0.95829304780679    5.69754560868916    3.35077496700289
C        -0.81725326888100    5.05098106150770    1.09516353018570
C        -0.57576151852088    4.03116743341611    0.19088127869467
F        -0.65572385073199    4.30745217835908   -1.12695790192775
C        -0.26351818689417    2.74444357170738    0.58559492394065
H        -2.27129194338935    1.51488713841941    3.58156360510857
H        -1.52966938751517    1.05337615094032    5.11683889945171
H        -2.42724740302398   -0.14084330618682    4.19260395017306
H         0.48392774523011   -2.75668809981894    4.55981971423268
H         0.50449293120184   -1.43432649451137    5.72287651253696
H        -1.01848075752270   -1.91073491466474    4.97338127654438
H         3.32939854227303   -1.10849203471641    3.97595094579858
H         2.49555747467549   -2.56157333043693    3.42563132914905
H         3.37265258557418   -1.55216851955982    2.27156382500430
H         2.98055043287635    0.28480636970821    0.65995797366271
H         2.25382154639206    1.88976330921634    0.77421198647639
H         3.38193461793617    1.32942808385512    2.01958456256482
H        -0.34504782913559    3.26899114620750    3.94065294944068
H        -1.05846737912350    6.04847663991637    0.76793372618529
H        -0.10332801951161    1.97540405496067   -0.15460164089161
C         0.42325367582229   -7.39843900067591    3.36992660297466
O         1.62817729376416   -6.96310359547567    2.76116264160289
C         1.64465115062975   -5.79325370860380    2.09970748641100
C         2.86756349852691   -5.44416606529925    1.51088103061640
C         2.98433228441298   -4.25937726215463    0.81262978933331
Cl        4.50044119513982   -3.84336544498780    0.08110668127702
C         1.91309820347139   -3.38766067162425    0.68811852785507
C         0.69981348289919   -3.74080493589658    1.26720969663432
N        -0.38707228989670   -2.86251597248961    1.13296653425335
C        -1.53134780519287   -3.29753376495750    0.71835197603280
C        -2.58604036789911   -2.32837340524843    0.59921747024811
C        -3.85028736742689   -2.60366357374501    0.11032520215730
C        -4.79214374902246   -1.56887012069510    0.00192279027709
O        -5.98893692178498   -1.89446506516744   -0.46306921006962
C        -6.99377163044918   -0.89675666729410   -0.59106746075251
C        -4.38390272634193   -0.28346871927049    0.39454818122923
C        -3.10296534426419   -0.09477660863515    0.86806924553957
N        -2.21851681756107   -1.08006779273077    0.99098320915262
C         0.55386508498680   -4.93613847796457    1.97009618086796
H         0.66108398755266   -8.35775598767186    3.82441490691572
H         0.09740630337606   -6.70043868130319    4.14456272239631
H        -0.36675408402744   -7.53420705885578    2.62772947949339
H         3.70166233546324   -6.11719533538801    1.61685472473538
H         1.99540074524709   -2.47360852935543    0.12397892099456
H        -1.68306580409515   -4.33095322255739    0.42990872558370
H        -4.12171791544960   -3.59921808545462   -0.19944524455054
H        -7.23545548253412   -0.45896000729867    0.37945769425852
H        -7.86507881662330   -1.41503765103729   -0.98511029333344
H        -6.68574207999723   -0.11665947371977   -1.28996013074188
H        -5.04635640712246    0.56316688999305    0.33143916859779
H        -2.77244710226295    0.89069874130820    1.16084903884926
H        -0.39627054311945   -5.16410129589859    2.42435668397616
Cl        0.13174483040529   -0.57240426443947   -0.78862706268234
