55
 energy: -88.910625444405 gnorm: 0.000236086339 xtb: 6.4.1 (afa7bdf)
Ir       -0.60560417295508   -0.71808335937686    1.54369611605613
C        -2.18326779460130    1.75847120108359    3.32740861371961
C        -0.95574383800174    0.97765631908593    3.00531724802674
C        -0.53128161119930   -0.21475709895111    3.70867031267691
C        -1.23693719263934   -0.81424378083690    4.87620965769518
C         0.81363487198286   -0.51450823176651    3.29834341828212
C         1.71021544146439   -1.51337270762207    3.94136177424636
C         1.17077339721725    0.40375207051146    2.26632517486061
C         2.52057792493205    0.59309480859201    1.66434274995169
C         0.07602954476136    1.34865279812330    2.10731152753688
C         0.15739023084906    2.58221359819854    1.27800308300759
H        -1.97505098649286    2.39068952898251    4.19158413752348
H        -3.01454508768667    1.10797016205755    3.58679035074908
H        -2.47201393372132    2.40616961002094    2.50406942130031
H        -2.31527803398535   -0.74425908464376    4.76562430669277
H        -0.96204590162457   -1.85608639505536    5.01059486414612
H        -0.95373942560068   -0.27040087859417    5.77829213673722
H         1.15044160519252   -2.36129894255096    4.32483628237580
H         2.46544933374372   -1.87415521876305    3.24888899946367
H         2.21841373975256   -1.03497780348783    4.77938187885871
H         2.44142206799157    0.83997160928191    0.60805371474444
H         3.13814541406735   -0.29289162062792    1.77615738778138
H         3.01912930094216    1.42423301313477    2.16428244795234
H        -0.79881045959707    3.09337681360544    1.22475928902076
H         0.48164054627132    2.34375526512112    0.26694264466738
H         0.89197012221507    3.25909030312979    1.71431714594971
C         1.11669595043348   -7.16107944027115    3.10279771248032
O         2.23741660582415   -6.49343208488668    2.54594264727585
C         2.06800649500755   -5.29910956890408    1.95641395442289
C         3.22127112116699   -4.71994978260424    1.41143612365690
C         3.12659536703610   -3.49525276597501    0.78800655407747
F         4.24115552199489   -2.94329291632215    0.26592591803473
C         1.93668624827808   -2.79593658811366    0.68823562550744
C         0.79576705560827   -3.37982142415322    1.22825332819183
N        -0.42065258861362   -2.68916025846604    1.12190127536121
C        -1.47735355216364   -3.30233848824186    0.68431155524966
C        -2.67140314293620   -2.52657314786002    0.56085395883974
C        -3.86625398099543   -2.99178709049492    0.00203420315830
C        -4.93371550157197   -2.12965103258651   -0.13028111093538
C        -4.76854370631859   -0.81202211914976    0.29714556756538
Br       -6.18785105004483    0.44649035313842    0.14722634816095
C        -3.56030184227397   -0.40962318501984    0.84915242715031
N        -2.53945805571557   -1.24455412554037    0.98967020434521
C         0.85239773049904   -4.62318963571234    1.85741405053705
H         0.36537662610577   -7.37528206320710    2.33912712719553
H         0.67467986992230   -6.58081350276547    3.91602645556858
H         1.50707308368286   -8.09655122712540    3.49719091940525
H         4.16408646120962   -5.23569982772014    1.48120050006942
H         1.88313039648859   -1.85475123210425    0.16711936568898
H        -1.44610612331465   -4.33782998802861    0.36759570631220
H        -3.93808025248617   -4.01457866808380   -0.33128852526568
H        -5.86830851568505   -2.45589155278981   -0.55805549016137
H        -3.42275709609751    0.60860866453787    1.18001512218034
H        -0.04737283824030   -5.03383725946573    2.28457418575216
Cl       -0.30905839007230   -0.30587402076159   -0.79186439383355
