67
 energy: -96.361445280669 gnorm: 0.000346463189 xtb: 6.4.1 (afa7bdf)
Ir       -0.57562667393016   -0.81050144741420    1.92611431852489
C        -2.18368587810396    1.50801631312246    4.18059910310055
C        -1.07234029836529    0.61914597184934    3.74859580605907
C        -1.03589590162267   -0.78369551280762    4.13038372183718
C        -2.10726277222328   -1.47672844382614    4.89857338024815
C         0.29499511282634   -1.26094472391771    3.95868011712955
C         0.83835543480627   -2.50361105092200    4.57496082641281
C         1.02976119238127   -0.23323299416457    3.26789284813675
C         2.49717312869816   -0.24552217852660    3.00584365639755
C         0.18487785728924    0.96149038797435    3.20596070755919
C         0.73241286243253    2.31890146824806    2.86702309817283
C        -0.07006268168482    3.11341132325362    1.83277366075828
C         0.64306685363794    4.42650433390957    1.52414970662398
C         0.81569712259401    5.25457641702087    2.79489968600453
C         1.58936541156025    4.46360635707027    3.84619182297311
C         0.88541382606749    3.14554687663942    4.15606470022153
H        -3.15290138993702    1.04621676899780    4.01414827123661
H        -2.16531361528448    2.46950435212910    3.68248913277253
H        -2.07770161285228    1.66859481228607    5.25510755430410
H        -2.00081983537444   -2.55576607296734    4.83649117196713
H        -2.03548507543872   -1.18701786175805    5.94763226627666
H        -3.09459669683943   -1.19570676945625    4.54306905823654
H         0.87637082586474   -2.34857212812731    5.65430893936116
H         0.19995451995253   -3.36415527893310    4.39052382685070
H         1.84752318750610   -2.71914646522154    4.23654957867933
H         2.88373490079803   -1.26002032385207    2.97608349234973
H         2.72536828874809    0.24001081205156    2.06007519726568
H         3.01044002528877    0.29755050884104    3.79979043429036
H         1.73180245505532    2.17524542814726    2.44613320853341
H        -1.06999584963131    3.33648862921410    2.20253435311240
H        -0.16895120900828    2.52286430105842    0.92199455157701
H         0.06641734091539    4.99078047572929    0.78886272310213
H         1.62342101758873    4.21997512967893    1.08799452982663
H        -0.16699228236745    5.52260801581272    3.18989349847738
H         1.34467313125782    6.18182750832199    2.56544874750756
H         1.67982809844645    5.05220088028273    4.76126985482716
H         2.59840346207503    4.26480029890343    3.47790009338677
H        -0.09695921723597    3.35400570383768    4.57876581141215
H         1.46035223638923    2.58148524707739    4.89277904296588
C         4.19003826855482   -4.09375198290260    2.50532271607633
C         3.95348198018170   -3.37983629843134    1.41928099355854
C         3.14790819858933   -3.85151862336780    0.24967982961082
C         1.83439838237917   -3.07472061517025    0.10781373916677
C         0.87627428698197   -3.42860719797782    1.25707175409542
N        -0.33466331623227   -2.65208119657077    1.15797874420707
C        -1.29880326257424   -3.14747813527922    0.45717599852964
C        -2.43672866519284   -2.32807759594797    0.17831196581554
N        -2.42491958361150   -1.09812428751093    0.74452596734937
C        -3.36991543616300   -0.23884451495555    0.37612118854321
Br       -3.27562766855039    1.51110394647841    1.03581218936951
C        -4.41375122725392   -0.55748386133745   -0.48389729523790
C        -4.47538992424704   -1.83125411404872   -1.02697417511549
C        -3.46062386465953   -2.70927569585575   -0.69797080132121
F        -3.43005879899926   -3.93745067272605   -1.22482314233738
H         3.81933736721345   -5.10003341273481    2.61400249798146
H         4.77966392736510   -3.71497640744431    3.32316509508313
H         4.34788200581264   -2.37638910453091    1.32663473699797
H         3.73076163721218   -3.69869080948104   -0.66114399530907
H         2.93761944887570   -4.91813475604916    0.34393729207661
H         1.36005311743613   -3.32134127300259   -0.84290501295394
H         2.02887627566635   -2.00222198692578    0.11793336459218
H         0.63934258949066   -4.49592378855078    1.20697304237042
H         1.37717255486108   -3.21797265561500    2.19924033282494
H        -1.24354263325262   -4.14173456626453    0.02555994121429
H        -5.16045886885472    0.18377897344180   -0.71938368831995
H        -5.26687592292662   -2.12769289285297   -1.69657804731982
Cl        0.18453182985548    0.06575045571970   -0.14758173007804
