78
 energy: -125.600992980284 gnorm: 0.000734347973 xtb: 6.4.1 (afa7bdf)
Ir       -0.66439934806925   -0.96702693015168    1.31781330987690
C        -2.01863174420034    0.75887910357964    3.95150298973050
C        -0.83300965229124    0.10752600626333    3.32839787517047
C        -0.46392196706662   -1.26901318668338    3.51203853022568
C         0.84102529773010   -1.45822108636076    2.93267278585215
C         1.72449383169475   -2.63607806908583    3.15054009886522
C         1.22001041391276   -0.24717287089159    2.28895959445310
C         0.17592816840130    0.73669785476813    2.53801175430429
C         0.32610041293112    2.18334106099624    2.31360460926095
C         0.27267848234321    3.04776198182539    3.40656144569791
C         0.47655640075197    4.40226457460134    3.23749706600101
C         0.73962918306533    4.93488772789513    1.97634195435297
C         0.97488226699822    6.37630357578992    1.80412277235925
C         1.98260391916912    6.83226766370409    0.95650654364348
C         2.21176633268847    8.18706164160003    0.80111914387520
C         1.43401408144823    9.10852110153190    1.48349365280220
C         0.42709461198143    8.66624262319225    2.32609566024090
C         0.20125974619842    7.31167908499360    2.48856272632944
C         0.78159637290415    4.06766435818435    0.88567356287416
C         0.57821365327123    2.71161079185743    1.04883508476345
C         2.56338754554918    0.04174051036845    1.71505194824684
C        -1.16697834796725   -2.23715131808804    4.40158944151706
H        -1.85293885506226    0.83503481802376    5.02666558292804
H        -2.92015673121360    0.16890007802829    3.80016791107454
H        -2.17598524421165    1.75577077505455    3.55082698507801
H         2.27486864235252   -2.48505917632694    4.07947481556277
H         2.44315608623880   -2.74298401595922    2.34395465517176
H         1.15403259065258   -3.55554150385469    3.24462809870966
H         0.10354012617481    2.65149130830818    4.39562713077622
H         0.45866868785046    5.05442979386157    4.09763511922754
H         2.60431658455318    6.12018169739773    0.43363915911061
H         3.00117023388180    8.52716551203308    0.14657256463431
H         1.61216378633099   10.16665858984702    1.35903151511235
H        -0.18459820120260    9.38122810738620    2.85724495663782
H        -0.59457717805539    6.97646892213766    3.13753448827884
H         0.96064619970273    4.46289661747340   -0.10293222799715
H         0.59193870782936    2.05788477458931    0.18939735513943
H         2.89234930612121   -0.75991137148170    1.05812958288174
H         2.55231828265654    0.97259496825440    1.15630212792281
H         3.28415961018360    0.13166584857307    2.52844781084338
H        -2.23374038641224   -2.03446134471041    4.43427290014836
H        -1.01309844447192   -3.26118498166954    4.07095524278031
H        -0.77211202140606   -2.14752557456756    5.41411512531377
C         4.57958497561100   -4.73590993355504   -0.96209753475525
O         3.48348231270632   -3.85873843551163   -0.76860427960019
C         2.36499672342543   -4.32400635707177   -0.18118288205287
C         2.19742019492406   -5.61702465221133    0.31890885046973
C         1.00425009485579   -5.97923054879486    0.92126650453783
C        -0.03037212423268   -5.07240413927300    1.00533314759184
F        -1.18153658995468   -5.42943558782220    1.62422898838405
C         0.10543091328661   -3.77144303666008    0.50634308202689
N        -0.93190099001236   -2.83516379867461    0.58395460429453
C        -2.13735720468548   -3.15993486574682    0.24134125841959
C        -3.12781199442394   -2.12928976212291    0.29660343678978
C        -4.47275905827735   -2.34062259456951   -0.06807493701641
C        -5.34272594682316   -1.28876318606551   -0.04181615457276
C        -4.85885619309705    0.00089524489618    0.27605480464956
C        -5.68951366418751    1.13571362476495    0.24864246904006
C        -5.16683423255071    2.37865126667394    0.50212445295894
Cl       -6.18028496010839    3.77826757159034    0.45643975399137
C        -3.79672785537908    2.53671874970663    0.77926459071216
C        -2.97709839523800    1.44467371237435    0.84158341007102
C        -3.47969139778951    0.14757266173850    0.61284085923906
N        -2.66293798678813   -0.93033955055811    0.68202273791241
C         1.31542338806491   -3.40874321329132   -0.06897732342479
H         4.30239948428962   -5.58207943242903   -1.59505540924282
H         4.97208693964265   -5.09688001011219   -0.00842003919702
H         5.33834624167374   -4.14085517641595   -1.46528520343905
H         2.98637753006456   -6.34665653471985    0.25045904234682
H         0.86901235114879   -6.97001202508172    1.32427709580152
H        -2.38695874479689   -4.14521730208559   -0.13497268414405
H        -4.78843321764217   -3.33180888985697   -0.34926790078972
H        -6.38585075884249   -1.41878747673646   -0.28398035245177
H        -6.73397956257989    1.01618137489898    0.00908995556273
H        -3.40019318746787    3.52648617010486    0.93549421747752
H        -1.92041417681713    1.57027959661836    1.01663656248555
H         1.43405029839650   -2.41505556512947   -0.47192271588774
Cl       -0.15139865031683   -0.25106394115767   -0.89689485795467
