70
 energy: -91.785010980268 gnorm: 0.000706224615 xtb: 6.4.1 (afa7bdf)
Ir       -0.60035915923310   -0.74682057513541    1.45041396938144
C        -2.54973210511705    1.13288474411621    3.58123368204882
C        -1.23165446333136    0.55058033732626    3.19585900630022
C        -0.78069903158277   -0.72457508863642    3.69253619247366
C        -1.55841701590323   -1.59842179277707    4.61875386413204
C         0.63393110083150   -0.82416415636329    3.44300618839873
C         1.56036876226415   -1.76045345842853    4.14133002791699
C         1.01174752686608    0.29018620806864    2.65205252882191
C         2.40579055863811    0.66148554226954    2.26948687700694
C        -0.15069465563060    1.15746756468815    2.49218079657342
C        -0.02511223419446    2.56102285744183    1.96439545909883
C        -1.09071614933364    2.98807386970892    0.95040836230413
C        -0.76441136573012    4.38285360138021    0.42318672122140
C        -0.70957621365400    5.38871632689478    1.57063172328412
C         0.32027191484249    4.95879939811589    2.61225405667906
C         0.01052296675309    3.55841585535430    3.13418618477957
H        -3.36271891035937    0.42881380578088    3.41684593027919
H        -2.76229670942591    2.05599207974489    3.05411870148932
H        -2.51981594124722    1.35300228549197    4.64968424603636
H        -1.22282647614433   -2.63012812536218    4.56515392686816
H        -1.41999470733573   -1.24903772216838    5.64260658358185
H        -2.61978078566323   -1.56659517027218    4.39099502674740
H         1.04247504629647   -2.64388420620350    4.50198857068761
H         2.39745522343991   -2.06215739539693    3.51782332274455
H         1.96866590955046   -1.23857069213752    5.00865787675582
H         3.09775981747605   -0.15200339378506    2.46450831652300
H         2.46357387955213    0.91913840742876    1.21363178642560
H         2.72315871427839    1.52885735678647    2.84853434304803
H         0.93590535395764    2.62342844526121    1.44497140024660
H        -2.07805206070332    3.02154004820496    1.41151556289250
H        -1.10961506586469    2.27434871175093    0.12562650768055
H        -1.52033878789340    4.68835402038353   -0.30304618582366
H         0.19884226796979    4.36401335218551   -0.09153028613973
H        -1.69367838311938    5.46046314002997    2.04019362999738
H        -0.45479633610812    6.37810048947279    1.18531867341456
H         0.32594810084007    5.66710767056035    3.44337053596314
H         1.31513415758714    4.96887147408442    2.16057192956059
H        -0.95347456297759    3.56690879213449    3.64422750386381
H         0.77005182907032    3.25588468900727    3.85794921257188
C        -1.49633442231501   -2.94483929100722   -0.15772476547395
N        -0.48734631794330   -2.63881721321792    0.58180962707248
C         0.63778654321370   -3.55180500618141    0.56897662163495
C         1.96574407009359   -2.80112304685837    0.47838069013338
C         3.12613793380829   -3.79238739987674    0.46147899718219
C         3.09759485988770   -4.68932724820321    1.69593556595873
C         1.76486375048376   -5.42662064773043    1.79011288843327
C         0.59865692554063   -4.44259854445280    1.81769819566956
C        -2.60053127716070   -2.03315429206069   -0.22055997450723
C        -3.73316674930906   -2.23278067301390   -1.01058979848484
C        -4.70621655672050   -1.25276990798049   -1.04844904149161
C        -4.50704803409923   -0.09326540294534   -0.30667661690656
C        -3.35819213609091    0.03650968720595    0.45316095007198
N        -2.42745469713509   -0.91263706123696    0.51770420324163
H        -1.50963990485463   -3.84493181625117   -0.76401587056020
H         0.55279128466178   -4.20050778030629   -0.31304077475476
H         1.97436367465919   -2.19654024489613   -0.42875144901684
H         2.06167119960923   -2.12768266263330    1.32814305436010
H         4.06905141294037   -3.24518221681024    0.41817896546528
H         3.06323082168602   -4.41024938628602   -0.43666722025467
H         3.24545038791349   -4.08597866294779    2.59318048944295
H         3.91449873442647   -5.41049406731230    1.64533427860026
H         1.66048380714139   -6.09345702664167    0.93183732835413
H         1.74197133651624   -6.04035891147633    2.69164920072063
H        -0.34787155686866   -4.98517703883862    1.84219809942436
H         0.66028558379457   -3.81712100666913    2.70491336533375
H        -3.82542671203685   -3.14042074636084   -1.58465196070863
H        -5.59382843933940   -1.37866811711728   -1.64788686222947
H        -5.23218935212626    0.70373466674094   -0.31612946898726
H        -3.17986852194011    0.93389543716180    1.02192862855354
Cl        0.18393234117311   -0.00651166830874   -0.68394110222153
