70
 energy: -99.571431845899 gnorm: 0.000421048437 xtb: 6.4.1 (afa7bdf)
Ir       -0.18320840455819   -0.68191799539246    1.73588742039556
C        -2.27414677912215    1.63327110580246    3.31667862810605
C        -1.02884854786020    0.82287702517981    3.24299116142003
C        -0.94523880503839   -0.50548598429891    3.82654295887908
C        -2.07126325098670   -1.22358254765046    4.48827079313824
C         0.42491976304932   -0.86390303278983    3.93391202665949
C         0.92543093083968   -1.99647002626965    4.76275388970740
C         1.19170223726613    0.15365258076434    3.25839120499209
C         2.67528852157369    0.30944208157819    3.29897695729324
C         0.28033719551627    1.23282485430369    2.88902581937619
C         0.77300160373231    2.59762223614575    2.49388561700625
C         0.13311680373069    3.20681928373540    1.24352809298942
C         0.80398500320091    4.53923103490583    0.92257265585008
C         0.66675843314366    5.50462679799471    2.09735332649464
C         1.26839283596164    4.89756452395003    3.36191915819403
C         0.60838964018437    3.55986708521142    3.68381768255652
H        -3.14793921286773    1.05306613540826    3.02945656671391
H        -2.22478249364077    2.52196582404400    2.69940758532842
H        -2.41193210529914    1.93774728722925    4.35570143662478
H        -1.89943219500070   -2.29664308852296    4.49717285494465
H        -2.15154164127371   -0.88655987591663    5.52270357188689
H        -3.01807040107689   -1.01823794637837    3.99667359989637
H         0.59890508895755   -1.83278377110962    5.79032936359225
H         0.51552384882232   -2.95050057880090    4.43821103826376
H         2.00887256747721   -2.05309398735117    4.75812284879323
H         3.16858738556120   -0.60722200543936    3.60289088948020
H         3.06441323196135    0.60586757719377    2.32798331333304
H         2.92753092483923    1.09056836239442    4.01679423790105
H         1.84282640886774    2.51075447790093    2.28334595602650
H        -0.93155075095534    3.38215223687421    1.39263940448872
H         0.25167058983736    2.52035331215817    0.40538718204045
H         0.34699233596177    4.97228021922771    0.03092503796742
H         1.86231327434714    4.37629086987842    0.70609385891690
H        -0.39034805481487    5.72379320519570    2.26526855848088
H         1.16721403269266    6.44663831170747    1.86471006733202
H         1.13522239366935    5.58173039524458    4.20251028744505
H         2.34150585134897    4.75285511391666    3.21753201944336
H        -0.45063659553352    3.72128358337956    3.88401186117570
H         1.06109023476744    3.12805312433325    4.57846985598382
F        -3.49772382157270   -4.48941032647367    0.40064756833106
C        -3.39637924221680   -3.15813525592123    0.35935434683140
C        -4.47053702026942   -2.38427457659218   -0.04589500154770
C        -4.27777972543492   -1.01553447932853   -0.13581781127914
C        -3.04474019350082   -0.48146874397995    0.22882160331200
Br       -2.74852609778019    1.35914965297589   -0.01756405348384
N        -2.04635149667578   -1.21617269803761    0.70207781996231
C        -2.18398626881255   -2.56112466025718    0.71950290409043
C        -0.97371212839746   -3.29078033387169    0.96025279652278
N         0.11691716789827   -2.63786642807449    1.18516366667154
C         1.35436289418844   -3.37317159967928    0.99896816311552
C         2.56476988966231   -2.66334568344833    1.58840491439258
C         3.84223376954955   -3.45292341099099    1.30588489968270
C         4.04465627886536   -3.63064581700846   -0.19457056956310
C         2.83401790306902   -4.33214566357758   -0.79971045303412
C         1.56036246447500   -3.54180837491174   -0.52151831561897
H        -5.40970415523518   -2.84518759835676   -0.30836414408221
H        -5.06090122223721   -0.36338276111134   -0.48781365738258
H        -0.98176982422651   -4.36782897196734    0.82198690096312
H         1.25017198252486   -4.36883559378404    1.45022043975473
H         2.43695926396939   -2.56500638479355    2.66260285676165
H         2.63911535731227   -1.67218629149218    1.14011536839548
H         3.78050790118712   -4.43366139493336    1.78294103674002
H         4.69533712344986   -2.92677517898931    1.73517341376344
H         4.16959790803019   -2.65364175892949   -0.66493786464653
H         4.94722515824327   -4.21338219640886   -0.38467424143705
H         2.74441900138381   -5.33662778780587   -0.37923587493340
H         2.95919663903963   -4.43210491347289   -1.87905410825928
H         1.63059082881550   -2.55059630053949   -0.97182647403771
H         0.69909101453495   -4.05308012852181   -0.95593761581952
Cl        0.72570775087508   -0.03622414553015   -0.34725630331477
