71
 energy: -113.672780193979 gnorm: 0.000479259379 xtb: 6.4.1 (afa7bdf)
Ir       -0.63307276607284   -0.61258112107458    1.09574954778649
C        -1.83272347804060    1.21053389243303    3.85486577499162
C        -0.85120585113734    0.27641191398100    3.23056344090445
C        -1.01835915961179   -1.16480642178547    3.23131925381805
C        -2.17979795326695   -1.88307030777388    3.83041629579870
C         0.22459119470989   -1.75312919061422    2.85259218375767
C         0.58977096864881   -3.18587207923662    3.00974889466163
C         1.09988541555072   -0.69392523151244    2.43851313062955
C         2.54186418172361   -0.82434159103303    2.08957313180366
C         0.44367127890909    0.56778558022888    2.73793157839354
C         1.13619675012247    1.88753704501275    2.68300920873069
H        -1.92174808732715    0.96073395424493    4.91256882960185
H        -2.82076414758817    1.11324818678249    3.40859639493689
H        -1.51416441209969    2.24532348168220    3.77254135015916
H        -3.10013269653968   -1.32312985882390    3.68871089258089
H        -2.29649782415241   -2.87245598827797    3.39544482493775
H        -2.01716329104718   -2.00361485124674    4.90208187291942
H        -0.26102486638300   -3.84014552068386    2.83796653505008
H         1.40252005825728   -3.46667538472965    2.34586555556214
H         0.92366107341564   -3.33950504922070    4.03707591510079
H         2.83735609314523   -0.04033972028769    1.39813442290348
H         2.75053781467865   -1.78805839913276    1.63408243516046
H         3.14349651726072   -0.72980770396784    2.99410005329226
H         0.49166180590616    2.69218850536756    3.02406121315019
H         1.46284837546066    2.10534957084904    1.66713158829940
H         2.02067011917394    1.85358464293013    3.31810285501409
C        -0.04947829444976    7.75952172962312   -0.07606420322323
O        -0.55922633716236    6.43860096760018    0.08630320923365
C        -1.57024647564782    6.08003058876028   -0.70830422031752
O        -2.05916792581679    6.81520726003080   -1.53835390207843
C        -2.02383377714165    4.68773589338272   -0.46024129290079
C        -3.09027513889201    4.19001299295454   -1.20617098876002
C        -3.54183146471292    2.90308004522303   -1.00356710391488
C        -2.93583798954634    2.07657784426075   -0.04954324397863
C        -3.44347259655374    0.69962458637543    0.06601260900858
C        -4.82449781139811    0.49580394811509   -0.08184947921171
C        -5.33566066489286   -0.77789235523115   -0.24205800335435
C        -4.44234141707030   -1.83202291849312   -0.34039849357226
C        -3.09379102007235   -1.57896068506476   -0.10939356590046
C        -2.08882184569739   -2.59255894871943   -0.27684082605467
N        -0.86521221783560   -2.29202150503109    0.00973296936792
C         0.17363817176714   -3.20216940617890   -0.21904564391998
C         1.39252575921995   -2.73457425569160   -0.69322640181257
C         2.45168367206513   -3.60791285682740   -0.95567667041756
O         3.57619190245471   -3.03785282431785   -1.42619455793686
C         4.68653936949954   -3.85827063821663   -1.74442808115154
C         2.28624994783965   -4.97294721828264   -0.70944160344171
C         1.08567653818251   -5.44569148468389   -0.20624357736275
C         0.04292697433435   -4.57587266249688    0.02789319369621
F        -1.10777650081979   -5.05797331232489    0.55820103813069
N        -2.61510213412811   -0.34525858651275    0.19231450596851
C        -1.86334994017638    2.57928602499224    0.67921657749590
C        -1.41005945756394    3.86866774071222    0.48227511928095
H         0.28798834873453    7.91093324761372   -1.10301044713669
H         0.77952300646267    7.84708671428136    0.62041136983378
H        -0.82531654613185    8.49317307402950    0.15050039302214
H        -3.54911205531617    4.82910138792480   -1.94495798412350
H        -4.34532604450031    2.52707920954118   -1.61753944832282
H        -5.48154930240660    1.34991502524198   -0.06114847079403
H        -6.39789199857076   -0.93940376483992   -0.33492189838136
H        -4.76877772515066   -2.83292356390019   -0.56927124016878
H        -2.36840560391480   -3.54215449871568   -0.71831557209927
H         1.51474152842123   -1.68124211353968   -0.89185671113793
H         4.43520425680246   -4.58083061377201   -2.52498108834699
H         5.45065854001439   -3.17776830841055   -2.11365009177246
H         5.06069385072977   -4.38022245139009   -0.85991842513116
H         3.08195526411987   -5.67382542352934   -0.89789416230435
H         0.95145749629511   -6.49403208299799    0.00716573142686
H        -1.38060685800768    1.95449830048234    1.40772297456582
H        -0.57639748288927    4.24908747989821    1.04935391467879
Cl        0.26955188582388    0.57524006407138   -0.76094638665186
