82
 energy: -131.995163807040 gnorm: 0.000266894466 xtb: 6.4.1 (afa7bdf)
Ir       -0.05119156121120   -0.70683246488777    1.24519478446887
C        -1.15175070343052    0.70672766034706    4.11721293671795
C        -0.01018249754579    0.24111970654560    3.28035014791785
C         0.62010614740762   -1.03853517867670    3.38534558487934
C         1.76078642765959   -1.04567764430201    2.50622174753193
C         2.80740800382753   -2.10648854649025    2.43039550564239
C         1.87120246375171    0.25416222057853    1.91317952273164
C         0.74591082523830    1.03816096589050    2.34515517928415
C         0.55794068502833    2.47262801746309    2.07519777263731
C         0.52144465727820    3.38679812542079    3.12666846772045
C         0.38862881077297    4.73780309149212    2.87285559394132
C         0.28466088324494    5.21585149827942    1.56726327812261
C         0.17000778851601    6.65718576172074    1.29967646152685
C         0.86809526114096    7.23532459797411    0.24088784009570
C         0.77358870671978    8.59244993449123   -0.00653486757577
C        -0.02406238335342    9.39292825804834    0.79501976804387
C        -0.72403728903521    8.82820762842312    1.84887104839313
C        -0.62549542822588    7.47244509769169    2.10235994508933
C         0.31003195114779    4.29529938618070    0.51995180733852
C         0.44776159021934    2.94374841999187    0.76732278185632
C         3.02773020342598    0.74404107681953    1.12009260441001
C         0.28220306074424   -2.06824124624173    4.40598084945348
H        -0.80407827993710    0.85868418471414    5.13960073954127
H        -1.94679952905239   -0.03447946577601    4.14761219842464
H        -1.54971634338783    1.64620641474849    3.74512847389816
H         3.57347254917829   -1.91509817781730    3.18235794851764
H         3.28282417943520   -2.10766640046823    1.45283057127452
H         2.38480361526966   -3.09119200176619    2.61003282018798
H         0.63091413398600    3.03966125689989    4.14223595497682
H         0.39365511044568    5.43632359991260    3.69558685800822
H         1.50824251911221    6.62278346386598   -0.37736004036508
H         1.32638174560047    9.02918342380133   -0.82577035956750
H        -0.09865436324269   10.45248575351035    0.59950053440888
H        -1.34903479141100    9.44848900688375    2.47470800393886
H        -1.18604150925364    7.03949388078953    2.91778524715075
H         0.21360984129515    4.64286836607372   -0.49793876557663
H         0.46138473842623    2.24093856245253   -0.05337828449994
H         3.22825817906576    0.09369224733720    0.27054437492890
H         2.84576982234409    1.75035223508540    0.75306367573026
H         3.91516052278361    0.74946804522376    1.75380947958325
H        -0.79328272595578   -2.17877090535593    4.51742929952743
H         0.72489648716925   -3.02737146657322    4.15797601752368
H         0.68402582131655   -1.74639207859282    5.36772810160260
C        -0.23162122943331   -2.62322189484415   -3.47218491898670
O        -0.17331396824018   -3.20891121670509   -2.17344081853830
C         1.03575718360232   -3.40015176690310   -1.64443741690791
O         2.07587417357920   -3.16169452325228   -2.20700514596409
C         0.94313860155347   -4.06816934929101   -0.30939583735670
C         1.78290510764937   -5.14575034997736   -0.09002500434845
C         1.72252977932385   -5.89259745570295    1.09088502252759
O         2.58253650231015   -6.92343124957825    1.18446837343534
C         2.57391507251137   -7.72449923048772    2.35376555284490
C         0.78856774642757   -5.52873065059519    2.06221516228895
C        -0.02109459223913   -4.42601008023973    1.86491287846102
C         0.04563507052939   -3.67623781010570    0.69484579885272
N        -0.73760336536964   -2.51239280216188    0.58560550527215
C        -1.84233573503799   -2.50089273190962   -0.08246854201569
C        -2.53791693623717   -1.25027623822670   -0.15317978256631
C        -3.71257818084334   -1.03879863680477   -0.88176634351588
C        -4.25831039112232    0.22236572869477   -0.90946635193837
Br       -5.84412232553171    0.60065141675930   -1.88057317549471
C        -3.63584734368755    1.27867491133601   -0.20480639544958
O        -4.20868793306318    2.47142922036913   -0.27118219452456
C        -3.63263735526652    3.57651016259578    0.40960696145719
C        -2.47639236087996    0.97144569768650    0.51093907583723
N        -1.94508083875694   -0.24648091851069    0.53375009412306
H        -0.06098309928411   -1.54812617200150   -3.39338062509890
H        -1.22731787569254   -2.82836798372779   -3.85481487869983
H         0.53203961219206   -3.05913214842097   -4.11780610122527
H         2.49092100375835   -5.43182599828338   -0.85124505162228
H         1.61136648474953   -8.22583054943880    2.48281448374810
H         3.35139245687568   -8.46947544015807    2.19891183587261
H         2.80971459163376   -7.13185069311532    3.24099430563944
H         0.68552318966885   -6.09557126373144    2.97294840993836
H        -0.74151309027128   -4.14865286357753    2.61758306723404
H        -2.22295956331318   -3.38693811814776   -0.57497085596996
H        -4.16879615534590   -1.85175410030352   -1.42267765543878
H        -3.65044298122173    3.41834903757157    1.48950937116506
H        -2.60934793726577    3.75961904692456    0.07513488672359
H        -4.26024768192400    4.42705656968032    0.15395027154986
H        -1.95745274453206    1.73571472729549    1.06971598861281
Cl        0.59299078174705   -0.35561859416837   -1.00932955947114
