67
 energy: -124.773425512816 gnorm: 0.000548650154 xtb: 6.4.1 (afa7bdf)
Ir        0.05923646121388    0.58690432730166    1.73940407294366
C        -2.10228292557023    2.03346355053549    3.75437371246642
C        -0.76516297944269    1.41607557586022    3.59143030328604
C        -0.46175755526230    0.02960459090565    3.84581142583983
C        -1.42205567491139   -1.01091727417908    4.31360837412032
C         0.93209993942040   -0.11654156818294    3.64663736664002
C         1.72617605002135   -1.35299686016565    3.87462106830555
C         1.53769628804297    1.22334919218365    3.50275059609745
C         3.00057898123762    1.46569226798988    3.51820966093798
C         0.51110964397687    2.15554650359510    3.48310872604125
C         0.64447356513348    3.61511131717962    3.44327377864569
C        -0.00821863265332    4.40001939715630    4.39249555268478
C         0.15469849374566    5.77243736997229    4.35760066712312
F        -0.47256319364366    6.51843687252120    5.28424526981632
C         0.93763238194284    6.40876628275823    3.40963957120041
C         1.57497260318730    5.60357901632259    2.48284200869736
F         2.34815587529404    6.17719085763841    1.54136319171007
C         1.44690156992116    4.22732462439028    2.48124803996053
H        -2.14386590180354    3.03099292628857    3.32670515593428
H        -2.32561507844025    2.10429265899470    4.82074272900228
H        -2.87984840483372    1.41566746285903    3.30974195636481
H        -1.12637774206933   -1.99761542297872    3.97137440223059
H        -1.43008966706042   -1.01673771750617    5.40344536144526
H        -2.42896315749343   -0.79840302366560    3.96891863529923
H         1.99048212956081   -1.40794157273520    4.93205170027656
H         1.15401216655486   -2.24474324872455    3.63106791038856
H         2.65237644412941   -1.34497866368606    3.30497608458895
H         3.48735757668080    1.02915678223008    2.64619182075459
H         3.21772715319416    2.52957675752842    3.54419555890441
H         3.43499482939154    0.99285598750375    4.39880661734979
H        -0.60879622714593    3.95924854916572    5.17012678082992
H         1.04870058356577    7.48006323777019    3.39670034252840
H         1.96244039426437    3.65310377045632    1.72868065166151
C        -4.44290918997697   -2.07279275228087   -0.13667567443071
S        -4.50621022035427   -0.27155020172663   -0.36354868670953
C        -2.86282008368262    0.15462114442452   -0.01666495916720
N        -1.98798303847907   -0.85838322624132    0.12892825979732
C        -0.86349572901648   -0.87624099024826    0.67581684484700
C         0.13528508803231   -1.90690251484718    0.62771626460037
N        -0.09526024148914   -3.12502571464492    0.93146827147062
C         0.87732215441585   -4.09829337461079    0.99632960302215
C         2.25092845422303   -3.87582707384284    1.11429319944989
C         3.11893664958267   -4.94582708807768    1.22005416663631
C         4.59265899605541   -4.71129002317239    1.36201989990497
F         5.27967757215482   -5.00536188494626    0.23650001101218
F         5.14896184562558   -5.45433163739419    2.33664549706493
F         4.89442811759240   -3.43169092472591    1.65131945199988
C         2.64124031597542   -6.25837243980997    1.19060416038481
C         1.28974401604814   -6.49305628541650    1.07632580178018
C         0.38931937397835   -5.42882915691090    0.98907857387137
O        -0.90921654025260   -5.67545156046137    0.88247672182740
C         0.06797872521273    1.57867748583580   -0.14286166665857
C        -1.17573995390657    1.99833963653559    0.38344331996117
C        -2.49475270215725    1.49522439386523    0.10750454072702
C        -3.51795316038837    2.46561403107436    0.11433781536460
N        -4.32510458898288    3.28225213870722    0.11963478138529
H        -4.36531967499964   -2.29819984519820    0.92076758414351
H        -5.37447470095787   -2.45901541993121   -0.53668170970962
H        -3.59440529872781   -2.46561752540325   -0.68555723516322
H         1.13849931689208   -1.53335976978384    0.34940858720117
H         2.64007378811185   -2.87047057184428    1.15107545382129
H         3.33474111131457   -7.08050030888002    1.27068781995425
H         0.90062209347119   -7.49778125864555    1.06043106823925
H        -1.39993037454575   -4.83216826878694    0.86915912616768
H         0.86573226933651    2.31718067125406   -0.16775252440308
H        -1.17385895632839    2.99113123650571    0.83045404111691
Cl        0.14999757605931    0.57218755233077   -1.58808950356448
