75
 energy: -127.785830883234 gnorm: 0.000324446608 xtb: 6.4.1 (afa7bdf)
Ir        0.00411108524163   -0.76149924017878    1.59135105474752
C        -1.28358231608435    0.63092516726216    4.37161549921169
C        -0.08179695089734    0.16850282460330    3.62443031281578
C         0.52916592516569   -1.11598593525416    3.77223621902808
C         1.71360057900500   -1.14048239444328    2.95491164031816
C         2.74245126971580   -2.22049508758477    2.93561039069741
C         1.89675815030694    0.17643112535307    2.40005723383026
C         0.75972548320179    0.96911679704972    2.76255605552964
C         0.59396072096509    2.39927229779604    2.47203595355415
C         0.34652569171549    3.30919581682194    3.49923176300292
C         0.20891082558209    4.65438020445439    3.22131074001855
C         0.31249956765742    5.13227199008300    1.91572359144512
C         0.17115729523906    6.56648112363370    1.62617398387177
C         1.02823893605438    7.19421083050209    0.72442830556139
C         0.90158279114085    8.54523095076510    0.45875963095272
C        -0.08754095100919    9.28810513159501    1.08283015294963
C        -0.94877501306549    8.67204227012039    1.97651597225039
C        -0.81864459036958    7.32288061988573    2.25022595448025
C         0.56073644630053    4.21941663149473    0.89165957333800
C         0.70139295061806    2.87365189781920    1.16348514627504
C         3.11861591169252    0.65151309544762    1.70352138186871
C         0.11415599228613   -2.14315851069510    4.76443978156048
H        -0.99792291965357    0.86360626016458    5.39830511096539
H        -2.04191745263500   -0.14738842254521    4.41246715257722
H        -1.70980736775814    1.52406444482437    3.92271509395211
H         3.41002318658072   -2.09899594046911    3.78912564548508
H         3.33385064861530   -2.16754721234624    2.02637360339571
H         2.28137357126231   -3.20300719994686    2.99578773402777
H         0.29494193785059    2.96704993940270    4.52053988936231
H         0.04138879763152    5.35055483731701    4.02909766439025
H         1.81241377040253    6.62509443216646    0.24642113564161
H         1.57770011183238    9.02185493585984   -0.23622256116377
H        -0.18666548265370   10.34304732373474    0.87347853565411
H        -1.72485364838076    9.24638519313978    2.46109077667684
H        -1.50477842619030    6.84587901976725    2.93474240952118
H         0.62500183491794    4.56700272544386   -0.12829705311280
H         0.87440451075335    2.17739102606808    0.35584602771057
H         3.22514298078130    0.17875111558123    0.72756572621291
H         3.08345185849405    1.72855195757522    1.56176801578212
H         3.99433525695777    0.39055853765185    2.29647563874899
H        -0.96203322420513   -2.29722160537360    4.75684438960219
H         0.62379142042175   -3.08547772416606    4.59350210404368
H         0.38578685333834   -1.78509975301724    5.75867551290418
C         2.09907257741724   -5.08388873447229   -2.44896635705987
O         2.06665439624345   -5.80638224370376   -1.23066177143057
C         1.35164495215591   -5.31449626860976   -0.20476244602587
C         0.61855853490774   -4.13257852470583   -0.22234022218912
C        -0.06915892869695   -3.70867041879221    0.91517211940859
N        -0.77453649289396   -2.49093544060587    0.86294137797529
C        -1.78000351459023   -2.37148341327022    0.05230188034435
C        -2.38290562840585   -1.07680892981597   -0.05421906268259
C        -3.47528330066098   -0.77079331369923   -0.87146930311513
C        -3.94349150508633    0.52623621037337   -0.91230072386284
C        -3.29493921241577    1.48612728255006   -0.12894149603489
C        -3.73814492832861    2.92535124996531   -0.15421495547823
F        -3.39661749801433    3.58390040751328    0.96193432594730
F        -3.18555345473432    3.59833865849643   -1.17906039494574
F        -5.06520405107163    3.04870116796110   -0.28878306646732
C        -2.21395093864347    1.12056180143515    0.65620260298039
N        -1.76956147521677   -0.12939959818479    0.70246608856377
C        -0.06524274727122   -4.46811957671410    2.07848236125372
C         0.63855802284298   -5.66142690112341    2.10190698281827
C         1.33703119893434   -6.06517862830126    0.98439659465817
F         2.02833037033749   -7.22242703251979    1.02746909994449
H         1.10276824630042   -5.01759939507309   -2.89276053454592
H         2.75198215905249   -5.65563854555063   -3.10462599608311
H         2.51113476313106   -4.08255580855251   -2.30401500489300
H         0.60577532844517   -3.50124398232952   -1.09539134856795
H        -2.14043835969689   -3.20912477114185   -0.53309956485135
H        -3.93478472889513   -1.54507551624526   -1.46452654992051
H        -4.78650390490791    0.80076722618086   -1.52742372248111
H        -1.69513518883174    1.85794332020872    1.25396764231763
H        -0.63937983624671   -4.15333852777010    2.93221176830240
H         0.65104088140045   -6.28716882186171    2.97974928693403
Cl        0.89536024448039   -0.57787242887072   -0.59803050047863
