66
 energy: -96.817101215148 gnorm: 0.000402598747 xtb: 6.4.1 (afa7bdf)
Ir       -0.50808441188021   -0.00051236529326    2.19724575263835
C        -2.40419146774306    2.56655324160120    3.24802456394985
C        -1.19266531131595    1.71290719300230    3.41719673087156
C        -1.02254927070735    0.62184307429794    4.31681283249360
C        -2.02460139834130    0.08073039326011    5.27702640137954
C         0.35532249602038    0.20754152848205    4.26146605824006
C         0.97151808700182   -0.77586880211503    5.19720991596274
C         1.06135044945579    1.12874850217803    3.40151641505925
C         2.54292484517691    1.26162583509187    3.28465564396461
C         0.11206127194922    2.04840426422169    2.87664793086940
C         0.39835003512043    3.26880507884103    2.07613917605675
H        -2.28750918343005    3.48017677247650    3.83137537735067
H        -3.30467849205544    2.05948050255425    3.58158967822128
H        -2.52842821758212    2.84677095068023    2.20449897728763
H        -3.02811470411413    0.42691315518946    5.04858014800369
H        -2.01424990775748   -1.00636844766192    5.29865266353321
H        -1.76812730264413    0.43429800429825    6.27633756670434
H         1.16121513258610   -0.28373406876664    6.15202197956872
H         0.30488383682659   -1.61404233745186    5.38006639355676
H         1.91830715152051   -1.15361092541660    4.82293366029647
H         2.84228253370728    1.53337148707616    2.27562044890541
H         3.05374563487344    0.34844493654817    3.57109407357468
H         2.87184190996253    2.05778656722455    3.95350883749014
H         0.24790077192196    4.14869976183933    2.70203615743158
H        -0.28200371050636    3.34156431566467    1.23001478426017
H         1.41877495703859    3.27238875079416    1.70597129682957
C        -7.05737824413687   -4.85394151195948    0.28524346620723
O        -6.02147568010795   -3.98684698018970    0.74633757758398
C        -4.79826455941346   -4.19808700118658    0.27856336061525
O        -4.50075508900517   -5.06600028436346   -0.50793064964770
C        -3.81053663865531   -3.22275132901439    0.83632646041612
C        -4.16542747852893   -2.25546673396186    1.78117792535163
C        -3.19840554673611   -1.38425078899023    2.24160244980721
N        -1.93034019540861   -1.42854174848245    1.83394277147815
C        -1.57623654955617   -2.35893509302710    0.91155281347833
C        -0.20100861074672   -2.27511687473055    0.51093710377823
N         0.51751276229755   -1.35540557968691    1.05889402386052
C         1.90913783960954   -1.25339026849161    0.70119238882167
C         2.77882368387053   -2.02368919020720    1.70725497680370
C         2.64321240281192   -3.54324581262621    1.57219293323528
C         3.49819546161385   -4.22363478040555    2.60798019110318
C         3.00919277900371   -4.44032073266591    3.89013288897629
C         3.80107231929861   -5.03433022076903    4.85701334766468
C         5.09664048907548   -5.41794221382996    4.55248729287406
C         5.59377860984309   -5.20415489774975    3.27771977558702
C         4.79972946172012   -4.60768359036432    2.31326244278145
C        -2.49591743332327   -3.26978568438275    0.39707574441777
H        -7.02513841166215   -4.93650085070819   -0.80209478652794
H        -6.93355818778901   -5.84679221757990    0.72042797432101
H        -7.99059309246791   -4.40533807266274    0.61341360491359
H        -5.17805760321926   -2.19041504714536    2.14255936191800
H        -3.44948216383485   -0.62212605763225    2.96294546942824
H         0.19152734141654   -2.94311224986505   -0.24792443154776
H         2.07375220855605   -1.65036985382588   -0.30504484899713
H         2.18482616813188   -0.19818955760804    0.71456115011855
H         3.81896762456510   -1.74089658015073    1.54605975701819
H         2.49533067682883   -1.73454320439912    2.71842982515915
H         2.95891261994935   -3.85374421150630    0.57495543107267
H         1.60109861194681   -3.83478944427182    1.71714085470265
H         1.99658333495295   -4.15029751464282    4.13097245697077
H         3.40897736064561   -5.20222622736544    5.84943969779259
H         5.71627534004349   -5.88382496501940    5.30482186234834
H         6.60255415470108   -5.50418158817211    3.03381177978446
H         5.19492355126194   -4.44601707685866    1.32052741517870
H        -2.20060824803183   -3.99832388762969   -0.34194459356720
Cl       -1.23643680461939    0.87435655533589    0.09510027008890
