83
 energy: -133.019360023206 gnorm: 0.000364648156 xtb: 6.4.1 (afa7bdf)
Ir       -0.78195245587617   -0.40320363869500    1.30251371586125
C        -1.51508106038319    1.97992257604884    3.73201686072778
C        -0.55909663215983    1.03221906945464    3.09665685818760
C        -0.38967847780254   -0.34023025104469    3.50331789125695
C        -1.12715564723361   -1.01284622650593    4.60913204617176
C         0.78951851696043   -0.84691173364601    2.86882191782860
C         1.46370431974092   -2.12234431328827    3.22996464083757
C         1.25543229452299    0.13725288209997    1.94760542653656
C         2.54145422818794    0.10477669855990    1.19426445585735
C         0.42905869557892    1.32860813913838    2.12037132475286
C         0.78165636140481    2.65846735365590    1.59895233253631
C         0.97993262360783    3.70781743030485    2.49570954958999
C         1.35963640480324    4.94522005330154    2.01104000445554
F         1.55188466265356    5.95231235153120    2.88915308797380
C         1.54994480425946    5.19273264512140    0.66367215620185
C         1.34401618104219    4.13094766888634   -0.20054178062912
F         1.51409184988806    4.33638307048313   -1.52256570483680
C         0.96814841825181    2.87560438958523    0.23533079354168
H        -1.54657364453068    2.92309463812791    3.19725417744942
H        -1.19048976700624    2.16806936050338    4.75624815548580
H        -2.51590072849832    1.55829515589656    3.77635674621335
H        -1.34075680014225   -2.04817050310096    4.35354052681814
H        -0.51519883519240   -1.00548724765936    5.51141555060398
H        -2.06231847742551   -0.50424965256716    4.82072021542148
H         2.15141763817896   -1.92873507523307    4.05409148503719
H         0.73856949102900   -2.86084072846581    3.55996405024778
H         2.03314893685496   -2.52859073249484    2.39882699643970
H         2.40022904561565    0.41730996665089    0.16291950827654
H         3.24694084974874    0.79505119522185    1.65724224861098
H         2.96909105903188   -0.89303342501920    1.20362071729901
H         0.86943667857939    3.56690068176789    3.55819030340750
H         1.84600457334265    6.16406672247833    0.30435793780129
H         0.79262787448216    2.08943363577800   -0.48193073372450
C        -2.46495934536461   -6.50494171480465    3.38119415369819
O        -1.53421337728428   -6.06658111616292    2.38952158826600
C        -1.20501078740638   -4.78461337594076    2.35242701632496
O        -1.66123100611900   -3.93433003575715    3.08644486424833
C        -0.16807740049157   -4.51219058806800    1.31620072335176
C         0.82205516386486   -5.45410964313931    1.10346124447583
C         1.89439826048469   -5.20149280417322    0.23968231180278
O         2.78453483262066   -6.19787053385576    0.10196284458478
C         3.90243907797167   -6.01645491448077   -0.75042091880785
C         1.96891619380117   -3.95592475733752   -0.38833684318288
C         0.98405728883783   -3.01145321835097   -0.17778973925320
C        -0.10421032802663   -3.27033611482585    0.65160011651864
N        -1.12168876472006   -2.31945624948683    0.78388068008394
C        -2.35265286793230   -2.66428569389421    0.62829935592664
C        -3.37926075265925   -1.68423120616891    0.83888996315994
C        -4.71412553659336   -2.05003263329934    0.87127206903247
C        -5.65126884928134   -1.07301067157816    1.19368202749287
C        -5.22689057701367    0.21764018702452    1.36773755932470
C        -3.86121903941915    0.57101947950596    1.20162628016439
N        -3.47643802139527    1.86550144616975    1.25476820966909
C        -2.48113733207760    2.40354793636886    0.34443360266794
C        -3.17610735604032    2.99980561815595   -0.88336714780921
C        -4.15275667352691    4.09703259894949   -0.46902416794043
C        -5.14520209412163    3.54434335774119    0.55185396375646
C        -4.37161857087411    2.91699328116609    1.71311715349625
N        -2.94257893805482   -0.41051903501306    1.03038857698705
H        -2.94768394674540   -5.64566268167743    3.84850689950511
H        -3.19601330388593   -7.13710444804047    2.88115058239580
H        -1.92441355908055   -7.08278432561413    4.13099692684869
H         0.78583417190940   -6.40238435176478    1.61380426061596
H         4.45611176576719   -6.95158751811900   -0.70291488192800
H         3.58876322463412   -5.83077646250122   -1.78052677459068
H         4.53728543399047   -5.19878052480211   -0.40069622883051
H         2.78499560740988   -3.71626039358227   -1.04996398708405
H         1.03220213969729   -2.06256938259846   -0.68813977993943
H        -2.62589868327350   -3.67362320267145    0.33804939171145
H        -5.00220229862837   -3.06891537593239    0.67947607340726
H        -6.69697331138480   -1.32171455012128    1.28028085088912
H        -5.95205440067036    0.98333673953595    1.57767342506913
H        -1.79909812596877    1.61972468468673    0.02790176061013
H        -1.91465135872381    3.18226946676346    0.85924604646705
H        -3.71146708506210    2.20698947262758   -1.40987712582216
H        -2.41861204324069    3.39691261796221   -1.55910104029290
H        -4.68313274618732    4.47593139325100   -1.34358526748664
H        -3.60013589726873    4.92996297507485   -0.02894595242931
H        -5.77656022262980    2.79472381632830    0.07174057145873
H        -5.78723422810742    4.34098436141970    0.92849829666299
H        -5.03619374086444    2.54114178036500    2.48916721700914
H        -3.73851413624782    3.68651067976320    2.16396877874532
Cl       -0.50223843617498   -0.09194452584564   -1.07010799330557
