68
 energy: -111.403783441289 gnorm: 0.000691848836 xtb: 6.4.1 (afa7bdf)
Ir        0.93868638531552   -0.06254365021916    2.02238235917093
C        -1.48398522167360    1.47096280030473    3.74551669845933
C        -0.16374001037608    0.78728669552799    3.74406380007871
C         0.05943806483744   -0.59454833429256    4.00021542971334
C        -0.97798122673176   -1.60920660107047    4.33181499251853
C         1.48235928844076   -0.81521065408878    4.01568087610817
C         2.16955442891212   -2.07045696696776    4.39279599577401
C         2.14944364811696    0.45872338564915    3.81003998525809
C         3.61048001682531    0.68423816475133    3.95318506413607
C         1.13609599458203    1.44427899267753    3.63189023205087
C         1.36631995214315    2.88638446460077    3.49464709361508
C         0.75529509415566    3.77168382746775    4.38135663251046
C         1.02363354220730    5.12334088010369    4.26804167961111
F         0.43796522623126    5.97129104797704    5.13264508556771
C         1.86531058454755    5.63821368196553    3.29726220317194
C         2.44998496147896    4.73368128143552    2.42750723013044
F         3.27056884753272    5.19823870501851    1.46739026457581
C         2.22472061430344    3.37237512525967    2.50921465216953
H        -1.43642218192328    2.42326575693660    3.22457674279396
H        -1.79099508621022    1.65211526540208    4.77631912287293
H        -2.24502268107348    0.84580557175223    3.28426450606664
H        -0.65793230215302   -2.60534032413846    4.03828664477106
H        -1.13806210279289   -1.61281732891775    5.40972669721108
H        -1.92311010684889   -1.37846974136388    3.84934926651197
H         2.30310438740984   -2.07377666268785    5.47625793718716
H         1.57609444967915   -2.94353664876938    4.13298539447097
H         3.15195583302695   -2.13764849064614    3.93355256969186
H         4.16857837084879    0.11498487638129    3.21227140184637
H         3.85363750541697    1.73637753569423    3.83908549040862
H         3.92953576194907    0.34740809647710    4.93907730206335
H         0.10708862923954    3.42105003013443    5.16694167903816
H         2.05761912226699    6.69551378530625    3.22143837428804
H         2.68754166122592    2.70816300148633    1.79628581416016
C        -3.67826739532917    4.07582586720805    0.17867337015473
O        -2.66275927397505    3.11429617103113    0.42064212168919
C        -2.86302703259851    1.84560934389225    0.03372582573032
C        -4.01365014264727    1.34758300116418   -0.57997303450724
C        -4.05711721959994   -0.00271778317919   -0.90344112091700
N        -3.08032621465617   -0.85332702562982   -0.67075856134381
C        -1.97508523259625   -0.38503088522836   -0.08797142010243
C        -0.90609686831794   -1.34995080961646    0.12547507778353
N        -0.82617487555983   -2.45662571935128   -0.39140911596411
C         0.10578263987355   -3.50247389050182   -0.33826406086215
C         1.21854044575767   -3.55602610180810    0.73005559921359
C         0.83487344604295   -5.01569385115409    1.02740809371195
C         0.59256454928662   -5.35464576974418    2.47726816162826
O         0.33359076185433   -4.53618569131555    3.33061934619163
O         0.66567855448900   -6.65778722664209    2.68757800256520
C         0.40241529648654   -7.14178154441355    4.00733473370991
C        -0.46182291205790   -4.83280756970642    0.20191047830382
C        -1.82181460849283    0.94279286410125    0.28304990850152
H        -3.87849710448807    4.17744147573887   -0.89019080452191
H        -4.59836358503036    3.81638867649959    0.70701246706357
H        -3.28720423396391    5.01394226170585    0.56521193765857
H        -4.85562836955988    1.97939158711548   -0.80660654665365
H        -4.93289808647152   -0.42350675903879   -1.37809314404499
H        -0.03736715219675   -0.91376424197029    0.88001438731892
H         0.49151729318895   -3.61847619791487   -1.35411372351955
H         2.23029714540646   -3.38462772815775    0.37637607439954
H         1.01733294268723   -2.91392847406249    1.59059249553342
H         1.50663063677101   -5.75237051135251    0.59116941757235
H         1.31649746369390   -7.09859486387982    4.60080638436684
H         0.07457948619158   -8.17161497855902    3.89525400966955
H        -0.36997697387943   -6.53596288187804    4.48238586841752
H        -1.33793821096098   -4.67158814423020    0.82567957503752
H        -0.67468718321482   -5.60224943227925   -0.53285727855263
H        -0.90287748086747    1.30744661974885    0.73267615022265
Cl        2.19726004375759    0.29492964433479    0.19397710655391
