74
 energy: -118.205965499445 gnorm: 0.000606091113 xtb: 6.4.1 (afa7bdf)
Ir       -0.51616126741136   -0.76237866847904    1.52068870261266
C        -1.93709219611550    1.22194898342416    3.93146991600904
C        -0.74297568580639    0.53116720302869    3.36586508156211
C        -0.37635434176030   -0.81184233542346    3.74087004651683
C        -1.09556431154332   -1.64491812872981    4.74619754342634
C         0.94463409484746   -1.07341058867700    3.23335450913676
C         1.78440121714247   -2.24481055092056    3.60882276214656
C         1.33767295919210    0.04420357702554    2.45099741412636
C         2.67918081215725    0.26132218159642    1.83602913208915
C         0.28581039997295    1.05365010666585    2.52974417297627
C         0.48225776622933    2.46377880218601    2.04313349840059
C        -0.64613719797730    3.01241639548711    1.16274729070109
C        -0.26942323506061    4.40252500480749    0.65665191815849
C        -0.01332680544990    5.34859754567383    1.82744847456028
C         1.08711390525504    4.79778613574878    2.73080206848993
C         0.72369955193411    3.40412869966285    3.23561367533905
H        -2.81565756663055    0.58168451508218    3.89275638300931
H        -2.15223354452757    2.15298323661419    3.42029335172398
H        -1.73895942066613    1.44480766898382    4.98069855512266
H        -0.85779996441821   -2.69791532016423    4.62610734044151
H        -0.78613645411928   -1.34126674550452    5.74700307940844
H        -2.17134210919929   -1.51381417125379    4.67221308383864
H         1.18491995963735   -3.14360649588754    3.72738969443957
H         2.55751716922699   -2.43790697321610    2.87100447227265
H         2.26868729064619   -2.03286370830490    4.56271967492996
H         3.25894039509526   -0.65673035925562    1.82958777827303
H         2.58309331683606    0.62029987834132    0.81325776102597
H         3.22526377788351    1.00984481424531    2.40981319642451
H         1.38720259859128    2.47097952965454    1.42821030644233
H        -1.57692428607033    3.09046397684097    1.72451417939852
H        -0.80367009453051    2.33883892553958    0.31901186305985
H        -1.07087372653518    4.79690882491883    0.02905091503162
H         0.62946540320382    4.33637844143235    0.03964682115925
H        -0.93169810820012    5.46992568018627    2.40667608784577
H         0.27383911564703    6.33301258269758    1.45249597731982
H         1.24117880480974    5.46627441484818    3.58048797786472
H         2.02418788811990    4.75189154184880    2.17087596457596
H        -0.17488326731719    3.46535489463427    3.84970067959518
H         1.53096315814443    3.01293913999302    3.85772638440367
F         4.90216200785971   -5.67001185334652    1.14189699339526
C         3.73753015711500   -6.26685758429823    0.82944392559032
F         3.92298397264845   -6.82506788423819   -0.38669229533025
F         3.59313386940725   -7.28839440695196    1.68839163275290
C         2.57699094530056   -5.31333880499606    0.84276688195564
C         2.75953890639722   -4.01870488366205    0.36580989661165
C         1.69647022035024   -3.13772383958136    0.35414974455936
C         0.44164627810834   -3.55466664584788    0.79775463622864
N        -0.62967327251849   -2.65288914801090    0.77184414956734
C        -1.74453512354378   -2.98501362367739    0.19564421564284
C        -2.78093768029074   -2.00700223142026    0.18726463962105
C        -4.01808468942217   -2.16211348197302   -0.44984710280082
C        -4.92385251021681   -1.12945874996765   -0.43400966446972
C        -4.58505140587975    0.06762723515138    0.22154490927242
C        -5.48248676230179    1.18762487100472    0.27933383585096
C        -6.73828866560433    1.38238312167266   -0.26265623339962
C        -7.13935922496828    2.67472258726188    0.12069897441716
C        -6.11151839439690    3.18084564222626    0.86708286230550
O        -5.11487612779891    2.29848119352816    0.96694220313553
C        -3.32728033623526    0.14407192967504    0.83579317021432
N        -2.45798758587339   -0.85201256958056    0.82912265485966
C         0.26328833305323   -4.85638750040871    1.26617853487946
C         1.33113913394782   -5.73362032469060    1.29259828379076
H         3.73014315219536   -3.70779000042166    0.01133535175447
H         1.81326049159738   -2.13440536419233   -0.02576871571239
H        -1.86677770502766   -3.94083881003981   -0.30043899761489
H        -4.23806252225062   -3.08912587140385   -0.95384010895137
H        -5.87977765261458   -1.23120634115964   -0.92005490227688
H        -7.30085499468849    0.69566131063001   -0.85998876235172
H        -8.06092719892537    3.16206526890640   -0.12099113867939
H        -5.98745259562117    4.12589244668122    1.35820829964103
H        -3.03645810764607    1.05430216393103    1.33767472947762
H        -0.70314892861495   -5.17204370894393    1.62625972368396
H         1.20026529109285   -6.73883226933078    1.66181649456994
Cl        0.02767372416922   -0.10410352792677   -0.71118255602273
