72
 energy: -128.210684894237 gnorm: 0.000980363211 xtb: 6.4.1 (afa7bdf)
Ir       -0.13988679132271   -0.28895090359422    1.47493708953128
C        -1.96846594875721    1.53467413422538    3.78724019956812
C        -0.69235430486658    0.89476621305597    3.37446463694821
C        -0.33784916719232   -0.46452058480840    3.68637101158923
C         1.04852940880103   -0.65061822221901    3.34907114060155
C         1.89233229748159   -1.78385307815014    3.81594016483510
C         1.50976957926954    0.54349630509462    2.71013717978528
C         0.42512674820529    1.51233745286180    2.73531358717800
C         0.58093977307021    2.94851790923699    2.46478662523180
C         0.28143708214995    3.86430713097977    3.47334063746190
C         0.45193766581621    5.21718509020023    3.26237930148032
C         0.92774061473888    5.69688606698192    2.04363200475180
C         1.10485159589964    7.14024177747887    1.82667506500553
C         2.24582316622062    7.62938710033107    1.19429132061013
C         2.41751953129149    8.98885702388781    1.00754320388699
C         1.44859692666740    9.87963510147051    1.44026857511400
C         0.30524307415165    9.40276934374953    2.06097095953418
C         0.13583556453984    8.04443824953231    2.25698802072476
C         1.23238560865231    4.77763244805428    1.04128433713827
C         1.06059321381503    3.42397627246921    1.24654363278135
C         2.91454114268775    0.85773038621544    2.33795035407036
C        -1.16514653263142   -1.39935658996231    4.49963088785534
H        -1.98920227405413    1.59105997289734    4.87631745569126
H        -2.82775797984441    0.94374390185453    3.47755586670084
H        -2.05767686934215    2.53693035876212    3.38111738575287
H         2.21809132026040   -1.56287890660243    4.83352974591489
H         2.77814743351782   -1.90739805137195    3.20075139004021
H         1.33726683836893   -2.71712777679494    3.83606907604337
H        -0.05588622391502    3.51336814479789    4.43580074316224
H         0.23306090571761    5.91296178458690    4.05823268451098
H         3.01246574150208    6.94199975159440    0.86732020247071
H         3.31111776468989    9.35647943493842    0.52392384799417
H         1.58432074742297   10.94100961314008    1.29263524669806
H        -0.45598632424885   10.09334347826518    2.39412563750559
H        -0.76400901556831    7.67746706719090    2.72869366664945
H         1.58682929454370    5.13110885550978    0.08461436032458
H         1.26637723691594    2.73011786053250    0.44644559072564
H         3.52635490030820   -0.03863761636149    2.28338101642438
H         2.95876131698344    1.37289878104660    1.38156620676728
H         3.33626249107897    1.52477316420999    3.09143848601480
H        -2.22485194142786   -1.22605913392985    4.33791982003720
H        -0.93358128239876   -2.43361186237598    4.26298723281394
H        -0.95100193392017   -1.23692821080909    5.55658267291813
O        -0.76895722765032   -4.73727735330555    1.84359506748662
C         0.49492365601081   -4.42726093172187    1.53818650822746
C         1.55823752470308   -5.30627584189252    1.74120205600607
C         2.85405095568017   -4.95187122907405    1.42210513063184
C         3.11105569971097   -3.68603498397797    0.90711956234831
C         4.50385952385800   -3.24650968872018    0.56102877533054
F         4.86804082620016   -2.15558028737377    1.27072886604065
F         5.43488747848860   -4.17814592075701    0.80154428801291
F         4.63283800575926   -2.89986830182453   -0.73304371858720
C         2.07759120846643   -2.78045156271944    0.72226912271210
C         0.76972038224088   -3.14071553815711    1.02296251517557
N        -0.24841479652196   -2.20471880378037    0.79827196072319
C        -1.31769765030605   -2.55923153662597    0.16072431762296
C        -2.27100366396126   -1.53790037300978   -0.13831780227929
N        -1.97356254900554   -0.30292074810276    0.33881897697230
C        -2.72902545857170    0.71966242396777   -0.05615635637870
Br       -2.22520445971327    2.45242903513688    0.47094984822590
C        -3.85732329171975    0.57456289869382   -0.85605316665483
C        -4.21043675416414   -0.68698946661208   -1.30858510192948
C        -3.38989484866436   -1.74250920482815   -0.95569064218069
F        -3.64205600881733   -2.97527943981498   -1.39843173678525
H        -0.85227204947214   -5.63392882402314    2.20633468665519
H         1.36676450186221   -6.28842950785249    2.14516040767180
H         3.66088282762559   -5.65091243620808    1.57323701646225
H         2.26757423668670   -1.79859000820165    0.31488302919303
H        -1.46791447497303   -3.56511673932851   -0.21241863686388
H        -4.44232097361182    1.44247887379351   -1.11506039893115
H        -5.07752813110532   -0.84713098119403   -1.92985875501309
Cl        0.80139411570787    0.31038423935655   -0.64276709068414
