72
 energy: -119.741989864090 gnorm: 0.000297776315 xtb: 6.4.1 (afa7bdf)
Ir        0.00010169258317   -0.49948658648889    1.59929294137942
C        -1.46459345882691    1.24282180456589    4.19207405643954
C        -0.24234874701511    0.70797607267371    3.53834711057327
C         0.30992700225464   -0.59215131029978    3.80896416343146
C         1.59443705992755   -0.66866187996610    3.16980301082903
C         2.64947676377270   -1.67854660329146    3.45102835198590
C         1.78959170816690    0.53970300597050    2.42356041087941
C         0.64730748246800    1.40143296637598    2.65767629912592
C         0.60734717100280    2.83197306860856    2.32445259199593
C         0.44879629805775    3.76783374207318    3.34632559113892
C         0.47644561509337    5.11860660005561    3.06574284704691
C         0.66637191143274    5.57576073094893    1.76291264507455
C         0.70375290612149    7.01656126053210    1.47215381929869
C         1.65398469813300    7.53926264915446    0.59736672260015
C         1.69623796086522    8.89607934744157    0.33367657411537
C         0.78504740956800    9.75086307340365    0.93249603962756
C        -0.16837834952481    9.24045823805373    1.79859604793246
C        -0.20685915894515    7.88515324974995    2.07042972540407
C         0.82148155949361    4.63644623947561    0.74494291288099
C         0.79186933684151    3.28417447439674    1.01946185858387
C         3.06304456258543    0.93165139659911    1.76459793739314
C        -0.21827650986814   -1.55470303437234    4.81626340192726
H        -1.26732872985774    1.35159625543112    5.25931641091767
H        -2.30282034369174    0.55724906180945    4.08713357322751
H        -1.73968513491217    2.20979808907576    3.78388525047051
H         3.18283426323612   -1.36531708361094    4.35005972942971
H         3.36726750632582   -1.73859030940453    2.63889476535898
H         2.23272525031598   -2.66485469126670    3.63292064021204
H         0.33732138044531    3.43715860611685    4.36696640051768
H         0.37406986713527    5.83235999984470    3.86910648215693
H         2.37751996100788    6.88123300931716    0.13837135540932
H         2.44371589745679    9.28963970677487   -0.34005921936727
H         0.81809611694143   10.81034968951340    0.72478512326097
H        -0.88398339821849    9.90290825796675    2.26368924507786
H        -0.96168011784222    7.49279244403830    2.73589236931373
H         0.94811482671048    4.97109419067664   -0.27368842176236
H         0.88282171920770    2.56958405683925    0.21559124001020
H         3.38304442596268    0.18450964032809    1.04158221297822
H         2.95857129726535    1.88603606491908    1.25783995853161
H         3.84213303664976    1.01556830794849    2.52267147279794
H        -1.30413499259928   -1.54387320970914    4.84015988310330
H         0.12765545127328   -2.56341117099842    4.61000343682754
H         0.14397909807997   -1.26837042857286    5.80436056924093
C         0.75394866696757   -7.04156441411481    3.16545935522701
O         1.93597011590980   -6.58993300359600    2.52441360615769
C         1.93432781362166   -5.40726740391700    1.89160803419984
C         3.13537737731342   -5.04989770308240    1.26420493390688
C         3.21491861362871   -3.84760075766147    0.59699972709689
F         4.37330675012716   -3.51202420055687   -0.00364639506574
C         2.15748513473530   -2.95649917384412    0.53361676653048
C         0.96572655702927   -3.32492270718998    1.14799484817955
N        -0.12507353526934   -2.44658197199862    1.05836193920827
C        -1.26602320032163   -2.89898938507661    0.64633964744735
C        -2.32347488297992   -1.95479754399333    0.46841398418091
N        -2.03976329625995   -0.68193664076520    0.84186962457261
C        -2.92575741670445    0.26740842599091    0.55035344646904
Br       -2.48997464741526    2.04918071036847    0.96088194233943
C        -4.15384473997008    0.01184879775246   -0.05025759636755
C        -4.48360479214385   -1.28980056618209   -0.39400593643996
C        -3.54569187423592   -2.27212310503314   -0.13772543103551
F        -3.78154957109540   -3.54173609914463   -0.47602385506462
C         0.84448380684594   -4.53975152447465    1.82237430334998
H         0.46342126823083   -6.37006468847534    3.97657992034003
H         1.00546468009318   -8.01671084963669    3.57653552530140
H        -0.06645717784765   -7.14915803679754    2.45219042888560
H         3.97937307640389   -5.71754320987578    1.30733421291025
H         2.23635847982037   -2.03026244625919   -0.01128408992327
H        -1.40659737640563   -3.93506368013084    0.35908678249378
H        -4.83505612424893    0.82566961471948   -0.24053820697893
H        -5.42525205958849   -1.53508688494056   -0.85921748334081
H        -0.08990760109758   -4.77967448858850    2.30301420345449
Cl        0.44039765986588    0.02738894350249   -0.68413577517642
