79
 energy: -116.818769336873 gnorm: 0.000681472834 xtb: 6.4.1 (afa7bdf)
Ir       -0.49264921199995   -0.87152856185648    1.37648588182604
C        -1.95292222976244    1.18176014562143    3.73252593115086
C        -0.74277638502084    0.52250967878889    3.16017636868809
C        -0.29066346786622   -0.77430224013587    3.60373282597374
C        -0.94482210202387   -1.56759201517102    4.68495366640718
C         1.03161177961365   -0.98711631703514    3.07854973359269
C         2.00229220187473   -2.03079610313978    3.51541105095279
C         1.33057129699225    0.09637171908005    2.21215122216826
C         2.64605240607409    0.32933743384398    1.55032912892111
C         0.22684202504826    1.04749668189220    2.26104680260562
C         0.33437728326894    2.43171035853120    1.68126440002310
C        -0.85700441848624    2.87852785456626    0.82796271877985
C        -0.56755514755237    4.24832903825542    0.21963966015781
C        -0.29251477603413    5.27576630606526    1.31539416056452
C         0.87310884991661    4.82653782442705    2.19285252752488
C         0.59428071189458    3.45413721478570    2.79952904590067
H        -2.81961134798326    0.52465052219519    3.69233501581768
H        -2.18664671855501    2.11235539289377    3.22838947249454
H        -1.75797517822643    1.40266466977389    4.78274537645022
H        -0.66081477328634   -2.61455623664577    4.63549069192494
H        -0.63492522310805   -1.17506921478200    5.65435373093836
H        -2.02702103197694   -1.49754263999090    4.62318510176546
H         1.53273259314960   -2.73893976228608    4.19017608086673
H         2.42097887394039   -2.57306874334944    2.66985514463400
H         2.82339431097559   -1.54608457402365    4.04397253571724
H         3.23773150245400   -0.58127191556747    1.54181387653712
H         2.51220639452465    0.66190709934921    0.52301425231634
H         3.19659992683289    1.09990151655693    2.09097135329675
H         1.20712973094431    2.43664622602799    1.02115841144299
H        -1.76151551452693    2.95447158012998    1.43185392776433
H        -1.02645701746508    2.14741625596404    0.03560895052546
H        -1.41663601034565    4.56976750013184   -0.38672788198624
H         0.30054055763795    4.17831419372176   -0.43936801774901
H        -1.18529973314768    5.39934227349481    1.93310007145789
H        -0.06490364148910    6.24454097042511    0.86608576091070
H         1.03985101298966    5.55333885218010    2.99058398873166
H         1.78260501146301    4.78143805977279    1.58910235594226
H        -0.27374335933903    3.51846998669909    3.45634646257375
H         1.44686126546702    3.13332639839161    3.40112102764491
C         4.46823582713212   -6.54475968350684   -0.51981773462789
O         3.65275052811619   -6.35466577110774    0.61863381990225
C         2.64782824335925   -5.45121242059676    0.55650932559854
C         2.35305745527924   -4.65122293436005   -0.53706583913325
C         1.28215776646398   -3.77192324597484   -0.50769115473088
C         0.51434524516102   -3.65793405102405    0.64081699313035
N        -0.58216195297029   -2.77598918978436    0.66495931752934
C        -1.61061358918347   -3.04992694251674   -0.07499128908885
C        -2.66597368095780   -2.09064715140362   -0.10661585684942
C        -3.84907748898690   -2.22707262997505   -0.84125581359789
C        -4.77616047012342   -1.21411753926990   -0.82191810421766
C        -4.51284845149674   -0.05801270762299   -0.06506236930580
C        -5.45221770088702    1.03128652654807   -0.02759161054905
C        -5.42281056450379    2.25363988788378    0.61251031295592
C        -6.61801729619475    2.91131726718640    0.26912686663262
C        -7.29495845051078    2.05261370051711   -0.55117501860126
O        -6.60495697142035    0.92478380527344   -0.73363450494399
C        -3.31012224807280   -0.00138783322047    0.64679481898251
N        -2.41835934226274   -0.98025366407570    0.63721018989487
C         0.80392571642699   -4.44364679823384    1.76038293058285
C         1.84816676244816   -5.35018847696289    1.72598356579963
O         2.18974427293579   -6.18470255528976    2.73554649691526
C         1.40946237401000   -6.18133235765022    3.91405642547982
H         3.88150176406676   -6.88818900379036   -1.37662164408659
H         5.00499395696813   -5.62904780729325   -0.78349222134041
H         5.18339869143914   -7.31498114397534   -0.23809846581024
H         2.94742220709723   -4.71277609282558   -1.43338693196410
H         1.06223607808513   -3.15051434774991   -1.36062357547278
H        -1.66381489273950   -3.96589814799305   -0.65174574858913
H        -4.00842147274645   -3.12073294970477   -1.42235000194931
H        -5.69512915913339   -1.28599659761133   -1.38113043855054
H        -4.64731659325588    2.63621606172649    1.24172679030415
H        -6.93432908585939    3.88410528882090    0.58348125923129
H        -8.24262610813313    2.13683918747934   -1.04549489801068
H        -3.07237711934890    0.86920021280615    1.23609661077280
H         0.17134081680779   -4.35606041811057    2.62712432569504
H         1.46723646629094   -5.21599715099992    4.42373650731233
H         0.36661324702405   -6.43155868631889    3.70132925715509
H         1.84383546404245   -6.94987912596909    4.54994906725205
Cl        0.06960530873993   -0.31074894282171   -0.87448447502297
