71
 energy: -122.246423976083 gnorm: 0.000822184340 xtb: 6.4.1 (afa7bdf)
Ir       -0.39281692451742   -0.95717637774413    1.59569769320854
C        -1.87408909882345    0.73587850580007    4.14053230797679
C        -0.62499684137457    0.21698925185991    3.51822055243340
C        -0.02043894494557   -1.04827980040843    3.80203300146106
C        -0.50515822960708   -2.02667487282557    4.81495435139474
C         1.26219839509468   -1.09030190313455    3.14040599806258
C         2.32442411138098   -2.10226649238011    3.39931250103207
C         1.41166267472332    0.10554656842917    2.38913206692498
C         2.64375077927435    0.56047567062299    1.69186448006794
C         0.21814838902358    0.91236852315551    2.59245545603553
C         0.09292366984851    2.32925059102966    2.20604552342099
C         0.00256445582618    3.29765471227377    3.20439835261532
C        -0.06600353227750    4.62978620342254    2.84258951018348
F        -0.14936008827660    5.56054537935109    3.81510710073387
C        -0.05400632694385    5.04597049909830    1.52310763191469
C         0.02973792531569    4.05923181143803    0.55604537217802
F         0.03537460887478    4.42718630486309   -0.74093101590859
C         0.10119575334629    2.71466716719586    0.86788349720204
H        -2.19757544245145    1.65432065345070    3.65973988445706
H        -1.68362266460559    0.94535246048505    5.19331703232362
H        -2.67617521959254    0.00305572425832    4.09334306721680
H        -0.17310629257242   -3.03399464088437    4.57854978195588
H        -0.09741512645903   -1.75974448352976    5.79066881414480
H        -1.58889251308187   -2.01290770022565    4.88651201568659
H         2.88877573242958   -1.79547113579742    4.28063734820229
H         1.90365381393903   -3.08485006711992    3.59383154339083
H         3.01698489008165   -2.17640726837052    2.56639707623751
H         3.21624849686679   -0.28243079385822    1.31549728778725
H         2.40370455176261    1.22188273170368    0.86453665944341
H         3.26728173077375    1.10915504800182    2.39853840751302
H         0.00957698564363    3.02972125892527    4.24825552868522
H        -0.10538220618313    6.08940786189578    1.26060605058562
H         0.14773978810535    1.98023667232836    0.07856624105539
C         3.37990736001931   -7.99733772649013   -0.09320328770493
S         3.66515907250870   -6.97481714790375    1.37262546056873
O         3.45451590266455   -7.77685700787288    2.55516981349417
O         4.93958076348559   -6.30863527798273    1.24425896227640
C         2.36143659566018   -5.73436651497213    1.28652208494104
C         1.12070746803232   -6.01701383517413    1.82794621020910
C         0.10714319043026   -5.07967558556047    1.73560854834803
C         0.35548434476542   -3.85624147747747    1.11036459752707
N        -0.65480021481512   -2.88787136232989    1.01671374473029
C        -1.81327950961707   -3.19589079954570    0.52083684947852
C        -2.77914928778901   -2.14827103189977    0.44454363892845
C        -4.05566303836925   -2.26937119591333   -0.11545426649258
C        -4.87717466371179   -1.16877884847234   -0.16538749008483
C        -4.41516573706484    0.06100532454351    0.33800128184751
C        -5.24380748549548    1.23360170474990    0.30341454591102
C        -5.02341496512726    2.53448433524641    0.71526811321139
C        -6.20087488307374    3.24632182951994    0.42808812211483
C        -7.05776740500275    2.34098777253808   -0.13630434561581
O        -6.49339428974679    1.13587662193673   -0.21415166749370
C        -3.12318967532385    0.10193577558914    0.87982389132940
N        -2.34037457679834   -0.96127580419271    0.94232031100338
C         1.61513220047074   -3.57719017355409    0.57874942284533
C         2.61594248594585   -4.52781502407319    0.65986050416034
H         2.38914113383208   -8.42400793862448   -0.01665278930407
H         3.47835843106309   -7.36510897122939   -0.96524870751430
H         4.13091235010820   -8.77773775090568   -0.10139772484103
H         0.96970839330338   -6.96112897774907    2.32634613719728
H        -0.86318098082904   -5.27816664775115    2.16338830213063
H        -2.02387126116955   -4.18828580625713    0.14003978418294
H        -4.37511175603289   -3.22189636488105   -0.50620755041779
H        -5.86624356255474   -1.22967467896209   -0.59024107343874
H        -4.13545138776644    2.93049960339048    1.16179297968672
H        -6.39025502614005    4.28334818706322    0.61228343503506
H        -8.05913379759094    2.44176105053000   -0.50613724869176
H        -2.72281738666330    1.02675354888377    1.26545876097865
H         1.77956764109428   -2.63158852104143    0.08485338696005
H         3.60049698586664   -4.34777870773139    0.25906658991688
Cl        0.12351827099431   -0.50961363873385   -0.68554144706771
