58
 energy: -84.558410471113 gnorm: 0.000832999802 xtb: 6.4.1 (afa7bdf)
Ir       -0.18463937576430    0.26473274524209    2.22610008919896
C        -1.48427749133420    3.20044364342709    3.53114407468056
C        -0.48437406073580    2.09302390645615    3.54098915736054
C        -0.42331800286106    0.97729169047849    4.42908903973408
C        -1.35810713680476    0.62891253190719    5.53097680577143
C         0.83862005955955    0.31599615965287    4.23936289925249
C         1.35452894486856   -0.74572616381584    5.15151959096962
C         1.60007023701541    1.07821151027352    3.28377202043325
C         3.06844025400820    0.97624841333549    3.04348418871714
C         0.77554967669152    2.16858471407715    2.84640973262789
C         1.20816187394930    3.31467441476646    2.00437259170846
H        -1.00637592377166    4.11180986760249    3.89044888726713
H        -2.33609472966874    2.97917194341117    4.16534854812266
H        -1.84494823670776    3.38960208735446    2.52217125509386
H        -2.23746272521475    1.26313047271762    5.52942695236450
H        -1.67437854005184   -0.41026133422008    5.47406389120273
H        -0.83264763124752    0.75869879190867    6.47750388872813
H         0.64364853094820   -1.56205607313200    5.25031487589356
H         2.30593957492419   -1.14064330936351    4.81111405025052
H         1.50361039150666   -0.31517915122727    6.14251296919771
H         3.33247093153816    1.30373240587861    2.04123488232595
H         3.43892934443710   -0.03109977040514    3.20252543960068
H         3.57410920159170    1.63829960105182    3.74819769677660
H         0.38702751596773    3.67560609704701    1.39080086930824
H         2.03589043640567    3.04588482401652    1.35530385643285
H         1.52938398557165    4.12822536891866    2.65619698047949
C         2.33531248812319   -5.64890932280943    3.40587944174259
C         2.94262928620025   -4.84197963871403    2.55629293616843
C         2.23510420071316   -3.91861078432081    1.61094872476844
C         2.66280802143200   -2.46692336391593    1.84123255783169
C         2.01428027834658   -1.48313095989152    0.85341408943982
N         0.61403297190915   -1.29641904751379    1.15426181750476
C        -0.22443447801883   -2.09441580604445    0.59289594955287
C        -1.62017131257768   -1.95311824385191    0.86941705955084
C        -2.59049730973508   -2.72732428106337    0.23559166205175
C        -3.92832513030363   -2.49096814116877    0.47105983064540
C        -4.27413065028867   -1.45726424730961    1.34363849311703
O        -5.50552183976381   -1.08154300149648    1.68067594204151
C        -6.62221589296124   -1.77388772331078    1.14231659609916
C        -3.22557997315640   -0.73136029699259    1.94600901576385
Br       -3.76580193737218    0.64260757889266    3.09563994356090
N        -1.94106580322257   -0.96328658978247    1.74496079326964
H         1.26051507344936   -5.69717110390028    3.47524362384389
H         2.88262102615617   -6.30266656556814    4.06309254630167
H         4.02352843729791   -4.81757942570976    2.50662188683394
H         2.48556659271124   -4.21017574070285    0.58677650172561
H         1.15763655138541   -4.02131594761687    1.75022429891278
H         3.74460798815449   -2.38992830073756    1.72699467652805
H         2.39802301548892   -2.18259197087622    2.85901424622481
H         2.12964974605342   -1.86690142951621   -0.16517649829304
H         2.51079273146128   -0.51623566532184    0.91772848188794
H         0.09466753198398   -2.84338714419955   -0.12480166087634
H        -2.28543393461590   -3.50088649699792   -0.45031585518394
H        -4.68443343308211   -3.08041183517663   -0.02069438179351
H        -6.59609104795116   -2.83060639560325    1.41563974283619
H        -7.49385575785863   -1.30151713727097    1.58883213406845
H        -6.66209695435155   -1.66614742667474    0.05642300491736
Cl       -0.76440759040495    1.19143606775366    0.09925216542450
