84
 energy: -124.475347177050 gnorm: 0.000153493992 xtb: 6.4.1 (afa7bdf)
Ir       -0.25076078988454   -0.18486805701287    1.47952884446147
C        -1.98970539767995    2.27887515381005    3.30522198002528
C        -0.74259478209586    1.54582058103933    2.93760013883213
C        -0.33183977613212    0.34228086334601    3.63697093264022
C        -1.10741216730154   -0.29657545544758    4.73891160744442
C         1.03684745091429    0.08464601720913    3.31547737486570
C         1.92438098948870   -0.87818188326692    4.02342735439149
C         1.42036182419001    1.01036270064822    2.29468078541267
C         2.80743173350455    1.19830150982186    1.77649499633572
C         0.32689640725014    1.95710257782166    2.10549952046504
C         0.50756261813640    3.24738418947977    1.35496395324091
C        -0.58141440531574    3.58904273581097    0.33299029454806
C        -0.20481412214867    4.87002529129702   -0.40713397308527
C        -0.03242902158117    6.02650048473522    0.57472348661000
C         1.02670098397905    5.68688283313817    1.62017582855218
C         0.66228178086597    4.40262729916154    2.35957094813273
H        -2.85041844476074    1.61376657712698    3.32059290527747
H        -2.19730188595574    3.10092714684765    2.63076844855286
H        -1.86311830850982    2.68236069872869    4.31094731261145
H        -0.79229052029400   -1.32384094099060    4.89795761532645
H        -0.93912756535604    0.25648830543630    5.66360978625271
H        -2.17329869182766   -0.28282760256826    4.52771438350023
H         1.36979610251892   -1.74547304636721    4.37087369503818
H         2.74441948967168   -1.21206165548627    3.39435226193060
H         2.34797247872312   -0.37761712170258    4.89502964031668
H         3.40301378001494    0.30304503229274    1.92783375837082
H         2.80036154699587    1.43293089793079    0.71492166682091
H         3.28302326737678    2.02420072708394    2.30601271184005
H         1.44430748804510    3.16958861103830    0.79540068912732
H        -1.54263390625289    3.74420301196760    0.82342930441396
H        -0.67913627277206    2.76844639249654   -0.37880619583621
H        -0.97946650850195    5.11355333914450   -1.13706459010399
H         0.72742576164709    4.71600451489132   -0.95521952426940
H        -0.98428744886987    6.22693210197260    1.07262417377793
H         0.25571023130244    6.93141727976558    0.03592462336520
H         1.12025504932762    6.50705913815702    2.33499263469012
H         1.99374511684114    5.56377640330117    1.12700925674073
H        -0.27228221386421    4.54936600341355    2.90153182915861
H         1.43920585787481    4.15965595774137    3.08679992723376
C         4.56784370657243   -8.44241599937610    6.62047666669879
O         5.01014539570549   -8.28482110461439    5.28827409304144
C         4.53976567331315   -7.23643172992669    4.56241824436377
C         3.63690332185861   -6.28293901769394    5.02378789573030
C         3.22957444875516   -5.25658287575370    4.19093157892656
C         3.71229879339569   -5.14252686523177    2.89169968303608
C         3.29419840076231   -4.03354365254441    2.02268882573728
C         4.22100346977943   -3.38146295520703    1.20696371751307
C         3.83417856173747   -2.32130001796889    0.40537124177963
C         2.52356094635841   -1.88118250746379    0.40538016809664
C         1.58472081460318   -2.53463562447697    1.20295452626654
N         0.25226526811547   -2.10045926101246    1.17872935853966
C        -0.70959967853047   -2.95746981864198    1.04042416236384
C        -2.03869186996341   -2.43694264079269    0.95045413961900
C        -3.17139793354979   -3.25178823631308    0.74580619716228
C        -4.39741053898339   -2.66692932936153    0.61137381820771
C        -4.49326544251953   -1.25645736861702    0.60383516332238
C        -5.71426808827599   -0.58928102141619    0.39689966081093
C        -5.74766412576907    0.78053909455710    0.33141633447542
Cl       -7.24662392705404    1.60509690715293    0.06812279545965
C        -4.56663763807352    1.53502923913415    0.45124917158525
C        -3.37403445587729    0.90804473664361    0.68141999669466
C        -3.30181714225418   -0.49488384368230    0.78709967531102
N        -2.11580228481908   -1.09993175872861    1.02725199613358
C         1.97008334294990   -3.60691010214912    2.00537425322322
C         4.61807293015535   -6.10264565984895    2.43710235437383
C         5.02048832695456   -7.13502782975554    3.25344471425451
H         3.48614647837236   -8.59997438826877    6.66486356673155
H         4.84207057599707   -7.58025992245505    7.23563169332526
H         5.07734659141944   -9.32865031492360    6.99414902038758
H         3.25018136142404   -6.32791756905143    6.02922020247975
H         2.54466402303154   -4.51628283003711    4.57550760693465
H         5.25274685785212   -3.69658353493644    1.22048236566809
H         4.56110848770741   -1.82788003792181   -0.22083342076327
H         2.20456738514814   -1.06732833787744   -0.22534071569349
H        -0.51458998972362   -4.01686265697907    0.92194114613626
H        -3.04669081076564   -4.32149716548950    0.70735289761655
H        -5.29031955691413   -3.25902866302784    0.48546020303809
H        -6.61552714952311   -1.16821245925023    0.27306867248880
H        -4.61574182544886    2.60712823363087    0.35241202304239
H        -2.45495390707262    1.46940880854908    0.73394665031156
H         1.23807475953109   -4.09963294830997    2.62686904654981
H         4.99173008518635   -6.05166983198477    1.42556659690268
H         5.71396918055532   -7.88388286102912    2.90434852345176
Cl       -0.07138654973488    0.18911610694079   -0.86538389824557
