91
 energy: -133.229884220672 gnorm: 0.000496038215 xtb: 6.4.1 (afa7bdf)
Ir       -0.90129343142086   -0.41105622300677    1.49819629850492
C        -1.91088005008196    1.55525101618363    4.16605008898106
C        -0.88429249031521    0.70589488219540    3.50191883122967
C        -0.77640963515988   -0.72315594357221    3.68690468708372
C         0.48084944796890   -1.14321207426895    3.14413928040142
C         1.12610430115700   -2.46600185636362    3.36619308070213
C         1.06033306015049   -0.02746837551475    2.47128233336104
C         0.22494534711948    1.13853502782526    2.73269437689116
C         0.63394430643144    2.53034698423651    2.49149546782201
C         0.72192749121459    3.41151494437622    3.56879975828171
C         1.14148328554558    4.71304697539470    3.37825655261051
C         1.48737688185506    5.17449539002595    2.10937026505309
C         1.93787119452495    6.55980261530824    1.90827280858047
C         2.99659639390097    6.84263982962330    1.04731958020738
C         3.42418891467579    8.14430662256294    0.86078434272162
C         2.79677457165454    9.18606043074672    1.52466181836367
C         1.74172899626014    8.91690483242287    2.38120276893348
C         1.31776901281374    7.61499384362967    2.57460287910915
C         1.39629422251215    4.28990875535439    1.03543308440386
C         0.97718683012796    2.98808649901639    1.22105093477333
C         2.43964866844865    0.03348006752771    1.91094293055543
C        -1.66418403074740   -1.52795459702504    4.57595222602504
H        -1.71358145123719    1.56637596453610    5.23880765745286
H        -2.91089412185275    1.15542473604613    4.01964629120078
H        -1.87150645249847    2.57399089504395    3.79497675269512
H         1.75997213135037   -2.39776595345218    4.25125922553858
H         1.75041602655380   -2.75511792017364    2.52485323285144
H         0.38836696169454   -3.24494174097938    3.53627662047838
H         0.48848618637147    3.06657184801533    4.56448454974646
H         1.22505562523445    5.37529216457484    4.22710234944178
H         3.50127483252079    6.03510531890022    0.53711392010487
H         4.25126279957639    8.34861028166887    0.19601759635746
H         3.12890788162971   10.20292791380163    1.37501976491756
H         1.24784060613634    9.72623013076592    2.89955633651048
H         0.48575663548831    7.41663737255150    3.23436844583620
H         1.63775851838381    4.63440808059367    0.04104203926170
H         0.88312488103602    2.32815853665490    0.37225951836375
H         2.81100701802650   -0.96198213296152    1.68286732238538
H         2.47019357749036    0.64465919651287    1.01252620426716
H         3.10272659456997    0.49005304819289    2.64756305231713
H        -2.69290787518421   -1.18367133009512    4.51116096420631
H        -1.62947734746741   -2.58266833909961    4.31689552934413
H        -1.33580833908673   -1.42159918362754    5.61042988433960
C         2.70278164866938   -7.27564608032294    0.28171174182819
O         2.81837316886598   -5.92079521090049   -0.10751854671347
C         1.78636117626515   -5.08399778604319    0.12332394854543
C         0.59546880552953   -5.42811861605854    0.74891136804030
C        -0.41194714469642   -4.49528890341492    0.92675892546037
C        -0.22939167979940   -3.18257300179353    0.50458517060262
N        -1.23032179411350   -2.22607751922991    0.68627358113797
C        -2.46268084847533   -2.52513726515256    0.44611928416203
C        -3.47958725945756   -1.54319566652693    0.69173371036774
C        -4.82051451665756   -1.87198830427066    0.58110112543502
C        -5.76092306541585   -0.89670817419806    0.89650946745379
C        -5.32469185647578    0.35888669204174    1.22762831194580
C        -3.94076723993346    0.67987978804399    1.23966116500355
N        -3.53777678928911    1.94445217527502    1.48995875800836
C        -4.45019983074044    2.96244457223134    1.98581233366156
C        -5.06428825208908    3.77097045104410    0.84145747257156
C        -3.94308915809498    4.41427103154678    0.02796027323553
C        -2.94851171032733    3.34538848455733   -0.41689426392804
C        -2.42541005700710    2.55578351241314    0.78655804834030
N        -3.03286259139833   -0.30778286279148    1.04542150530929
C         0.97734601090933   -2.81226929150696   -0.10168467917397
C         1.97050231131796   -3.74572650486616   -0.32106119698937
O         3.14685350498717   -3.49428928538973   -0.94102643318652
C         3.35295976434897   -2.21244169369449   -1.50141842749275
H         2.59072935924736   -7.36860869158982    1.36552009487157
H         1.86438038198229   -7.76417105913273   -0.22218246321788
H         3.63408685303695   -7.74554798918995   -0.02775480282817
H         0.43848152810144   -6.43418815685589    1.10073359777357
H        -1.32243952857420   -4.78409161414493    1.42745848332858
H        -2.74046392463918   -3.49244146875236    0.04227710585579
H        -5.11231686352559   -2.86198880543199    0.27614240317481
H        -6.81596411868173   -1.11673813400824    0.85772937586298
H        -6.04875130703285    1.12784393169575    1.42851580160821
H        -3.85318547776384    3.63758308595622    2.60595826777379
H        -5.21188265744822    2.51708276278062    2.62386459829642
H        -5.65271339686710    3.11836511645253    0.19389353172337
H        -5.72702732423899    4.53564236652599    1.24781444374042
H        -4.35532190771387    4.92769410333320   -0.84199598045753
H        -3.42807173382368    5.15803094539227    0.63954049709681
H        -3.43143563854458    2.65646306978119   -1.11344463886741
H        -2.10292615405457    3.80254732087038   -0.93055262309405
H        -1.73390394941107    1.79206189520078    0.44262738017590
H        -1.90053346108970    3.22932764926087    1.46732742924682
H         1.08723827758231   -1.79456092064312   -0.43604419802576
H         2.58065446188832   -1.97157062763582   -2.23684847129371
H         4.32197749143081   -2.26386104945208   -1.99335005211082
H         3.37579637896713   -1.43825808489473   -0.73025758779451
Cl       -0.36668886332181    0.22705627929803   -0.77097648866563
