81
 energy: -120.791664778639 gnorm: 0.000496328465 xtb: 6.4.1 (afa7bdf)
Ir       -0.30418606344952   -0.40440225328524    2.34333386191558
C        -2.57808681319217    1.23359416185728    4.32680145223063
C        -1.22996369956043    0.63284676470221    4.13195710844481
C        -0.85375903684022   -0.70854375281871    4.49594403888256
C         0.57910196992686   -0.80273745107891    4.40956001606579
C         1.40994841405445   -1.90443546569570    4.97058069264296
C         1.07338909176963    0.43127588133783    3.89461962180718
C        -0.05742786934396    1.32638098395981    3.72045064138919
C         0.04261207217866    2.77230203277795    3.45218547897646
C         0.67847785250307    3.58881226454651    4.38493063448080
C         0.76494016442961    4.95101526951080    4.17801742068686
C         0.23587589062232    5.53410246816041    3.02801209653780
C         0.34688520289678    6.98271455518709    2.79865894478296
C         0.68507612233844    7.47597446262051    1.54015119872754
C         0.79934877369088    8.83723227390272    1.32586997225512
C         0.56968991093009    9.72743794793343    2.36237950098575
C         0.22857566037466    9.24759870498098    3.61663825318820
C         0.12163724358474    7.88630238389969    3.83491662100217
C        -0.39032749000646    4.71131454436432    2.09435277397190
C        -0.49348454275545    3.35083008275422    2.30683540385165
C         2.50262342315775    0.83342002128766    3.78059162500371
C        -1.75345069012485   -1.70386458716883    5.14557142031935
H        -2.75288275289347    1.34877265667160    5.39734196777726
H        -3.36562179408712    0.59405124863047    3.93402690260308
H        -2.63106721370402    2.21892951461903    3.86987505848069
H         1.61061180812822   -1.67991582700766    6.01942543496475
H         2.36768111006987   -1.97940824338300    4.46245936312147
H         0.89301691923450   -2.85947879234170    4.93207376612971
H         1.09543015198018    3.15322276537711    5.28013233160589
H         1.27003373601699    5.57016220130525    4.90434305280962
H         0.88277392280334    6.78787813004410    0.73102795295103
H         1.07101935820554    9.20658281216471    0.34743029767789
H         0.65707689323374   10.79065130320732    2.19295356708427
H         0.04476385381951    9.93802720350797    4.42718321697129
H        -0.15799853381781    7.52067834356896    4.81228987206842
H        -0.80950719003221    5.14780614766265    1.20002668066833
H        -0.95224304162857    2.72392361246847    1.55703656095687
H         3.12076817174325    0.01111171354600    3.43051755846018
H         2.60927385674426    1.66979985555959    3.09471791140061
H         2.87100846546584    1.14035569407771    4.76017339549759
H        -2.77602534758131   -1.59298857483148    4.79703256698737
H        -1.42314352578847   -2.72038021426756    4.95171359612215
H        -1.74289749105372   -1.54516351386141    6.22457120637966
C        -4.72026937291734    2.64936322483266    0.51519172651348
O        -4.60663964160526    1.56891498152069   -0.39956825559774
C        -3.69610908833454    0.62380318539340   -0.20058789377569
C        -2.81344817113307    0.55848754968596    0.87929363282802
N        -1.91819148833283   -0.41358563458038    1.02573469958851
C        -1.85110424908598   -1.39949048907958    0.10394371161324
C        -0.84197688071438   -2.37841370520599    0.36829511218378
N        -0.06476831668729   -2.18872082768622    1.38164610495337
C         0.93596008793821   -3.20234794772409    1.64910026986436
C         2.14664051766833   -3.10395210405249    0.70576538867169
C         3.13576781731130   -2.01547201297428    1.13288086052715
C         4.24014544844807   -1.89253469679850    0.12049870709133
C         5.38899068630800   -2.66670360043848    0.22078404094987
C         6.38638699378696   -2.57450109301078   -0.73457478879318
C         6.24411617110923   -1.70711922915091   -1.80481556043368
C         5.10114926661990   -0.93195615691933   -1.91352269233357
C         4.10571908439801   -1.02605629578535   -0.95714959406752
C        -2.70622011760394   -1.42597127301427   -1.00223992056168
C        -3.62176532780221   -0.41290407552237   -1.15832568158402
Br       -4.80772658258376   -0.35993559908865   -2.64158170902181
H        -3.78352394286618    3.20609518420258    0.58322586555587
H        -5.02349541628803    2.29387191212165    1.50194236359686
H        -5.49662556953925    3.29097754023198    0.10462580305170
H        -2.83529388732747    1.31586300991114    1.64695083397625
H        -0.75354344331561   -3.25530765314511   -0.26377605323409
H         1.27597995398535   -3.10148920994084    2.67791943526145
H         0.47399318518292   -4.18573800394631    1.52322837202232
H         1.80263519594764   -2.89583213624126   -0.30830357763043
H         2.65754025616279   -4.06769821008194    0.69766651099392
H         3.55821598352440   -2.27404124090451    2.10554446547399
H         2.60707983077327   -1.06508912829689    1.20785135719328
H         5.50884521559458   -3.34523828191532    1.05371285196786
H         7.27748510284242   -3.17934802760431   -0.64513564100979
H         7.02229696589214   -1.63390832137841   -2.55094074253478
H         4.98833092228431   -0.25171942007808   -2.74585009954157
H         3.21744336914476   -0.41654252816072   -1.04037107953939
H        -2.63246491281301   -2.22040353215522   -1.72686446946339
Cl        0.76556441008825    0.62407051657895    0.47948660639947
