64
 energy: -90.624624688468 gnorm: 0.000389322142 xtb: 6.4.1 (afa7bdf)
Ir       -0.43637428995188   -0.97129976235770    1.36736197408065
C        -2.07647532687520    1.53875046253521    3.02380455882409
C        -0.92027743608335    0.60523045001281    2.89538119059717
C        -0.82735977708689   -0.68337198506745    3.54411003985698
C        -1.87100691432127   -1.28726802372172    4.42233962612359
C         0.53677291114874   -1.11799275511866    3.47271318452391
C         1.09387672950483   -2.23129206430548    4.29269249106433
C         1.25057958637784   -0.18939832293246    2.65681567122654
C         2.72949533298171   -0.10401309790178    2.46785400310725
C         0.34846590193236    0.90163144094331    2.33539568662793
C         0.78093436042969    2.17711260062423    1.69911134808297
H        -1.97199631890708    2.09127205742788    3.95873043348586
H        -3.02219593630516    1.00382379112432    3.05759482339896
H        -2.09735543091397    2.26185689770796    2.21257486924519
H        -2.87085788272207   -1.07244484069241    4.05494200064614
H        -1.74511965713799   -2.36400953381310    4.49359147076428
H        -1.78340174740820   -0.86803964567589    5.42560902340992
H         0.56413510142813   -3.16578884611590    4.12087898452810
H         2.15266743882849   -2.37683192123568    4.10301510009421
H         0.97032676461612   -1.97355970505394    5.34521101542984
H         2.96936558797707    0.25720745758569    1.47082647892303
H         3.21256282140624   -1.06378743825656    2.61945164789384
H         3.13831985638868    0.60584759918751    3.18827669683529
H        -0.06124591942039    2.83677295594787    1.51398123822683
H         1.28368093204017    1.98444053326807    0.75295191557351
H         1.48592534298928    2.68518396893412    2.35728150854080
C        -1.52885157257066   -3.39646569313094    0.32124310872448
N        -0.37429708743659   -2.91675272529164    0.64681129914048
C         0.78141579241646   -3.74448094783520    0.33550657934150
C         2.05876448903652   -3.21631444848347    0.97327347585587
C         3.25509088629885   -4.08621962248310    0.59085115752533
C         3.42788431051095   -4.12788267144811   -0.92328815633380
C         2.15146943850937   -4.64612336945269   -1.57650325846707
C         0.96038336880948   -3.77426248402185   -1.19430470826685
C        -2.65258674324167   -2.51346944865086    0.29731602705068
C        -3.93452211338223   -2.86627413273693   -0.13570934245043
C        -4.88841465649159   -1.88677589904177   -0.28319830789746
C        -4.54353889075872   -0.54862104494737   -0.02663854055133
C        -5.49184891689934    0.51470569546790   -0.22678684184343
C        -5.39311820819324    1.88212602255948   -0.06575029091837
C        -6.64344269798300    2.41535012053711   -0.42905316602146
C        -7.41737839399575    1.34677052924944   -0.78655414485224
O        -6.73647494533655    0.20506417667884   -0.66796183166593
C        -3.24627728700756   -0.28517722545794    0.42979979540083
N        -2.34446312941383   -1.23281814016233    0.61360144105399
H        -1.64244845476014   -4.41786274901763   -0.02710106284109
H         0.58742784313908   -4.76577175117755    0.68893897471028
H         2.22126519625866   -2.19735101520989    0.62021012922299
H         1.94852769500722   -3.21147894561561    2.05434470681289
H         3.10601617579345   -5.10075629281514    0.96774270975794
H         4.15789394985650   -3.68791679615261    1.05583103632516
H         3.64262322528081   -3.12391311462167   -1.29454049473443
H         4.27003605681156   -4.76997632747038   -1.18710600049447
H         1.97138802302874   -5.67588555045077   -1.25859810672075
H         2.25946678157988   -4.64570748698226   -2.66232457629857
H         1.12060935428891   -2.75260307132554   -1.54136152661316
H         0.05368313175532   -4.15257089571998   -1.66953592893958
H        -4.15462090374590   -3.89732242924460   -0.36023873592095
H        -5.88661013506809   -2.12442671163720   -0.61413041033354
H        -4.54066232935039    2.43725924791038    0.26525833910800
H        -6.93113151602993    3.44605289531607   -0.42753486434367
H        -8.43146105047274    1.28362904635250   -1.12922762450340
H        -2.93892281961527    0.72719294976542    0.63508534146809
Cl        0.23973610247185   -0.25897096631848   -0.80429618161069
