68
 energy: -114.462429366609 gnorm: 0.000187182641 xtb: 6.4.1 (afa7bdf)
Ir       -0.23040153358197   -0.93695897106539    1.73093930127001
C        -1.97806983992080    0.57954732240540    4.21987059548286
C        -0.66441969112257    0.14547184796853    3.66952087132722
C        -0.01538787523945   -1.09121022204841    3.98746816485234
C        -0.54263766010051   -2.07157989380241    4.97785849823706
C         1.30074601239911   -1.06643306045268    3.40051879602553
C         2.43162807148385   -1.99973404492832    3.67491401102121
C         1.45273205167062    0.17305414768991    2.70909311590087
C         2.73118213197332    0.67266924982629    2.14093485915194
C         0.21971322275724    0.91660931442592    2.84291078244699
C         0.05188200247819    2.32918294478483    2.46621242276113
C        -0.24065061323602    3.27164005017592    3.45060044218218
C        -0.34147046705530    4.60335408795709    3.09502101898200
F        -0.61804524984376    5.50926269392701    4.05499768910217
C        -0.16585966142797    5.04468476545299    1.79552288390151
C         0.12000022980671    4.08371589084661    0.84140463978885
F         0.29495981587805    4.47545449809517   -0.43717432419842
C         0.23089899430562    2.74084041397570    1.14721511106024
H        -2.33838068865462    1.47872329680343    3.72844535204621
H        -1.86298583055852    0.79280099075476    5.28324211735258
H        -2.72467821071383   -0.20578494532862    4.12606689057933
H         0.02358442659664   -2.99700462875492    4.96725872003534
H        -0.46402570496933   -1.63772758247872    5.97551089594819
H        -1.59094999481811   -2.29323487261039    4.79456535623133
H         3.20125061456122   -1.46457295858390    4.23123118807884
H         2.11380387894890   -2.85328258253359    4.26268147987335
H         2.87979452440274   -2.35868481281874    2.75097691184779
H         3.16747206210685   -0.05715238755604    1.46228880009965
H         2.58690726991085    1.60692046573446    1.60648243090922
H         3.43808815701271    0.83724833436941    2.95528232363130
H        -0.36166853213054    2.98655590012633    4.48262401365516
H        -0.24559259082011    6.08776126505653    1.53918599843641
H         0.43943046402461    2.02649988362026    0.36573714104108
C         5.64457076547731   -8.61968286914401    1.12771057297998
O         4.92786528968239   -8.20562504191223    2.27406137904715
C         3.95912459457983   -7.27509014844168    2.14021473088522
C         3.29595848606822   -6.92609333175726    3.34489201798561
C         2.30176080095981   -5.99779410472938    3.34909102804513
C         1.90637410047443   -5.35176163214379    2.15286112357954
C         0.90283536526921   -4.37275348173675    2.13017441235414
C         0.52588406589782   -3.77632505239865    0.94487853697994
N        -0.47614702127603   -2.80180645514128    0.92403381341248
C        -1.45787552026823   -2.92032031065118    0.08144470382002
C        -2.37338773521010   -1.82904218734108   -0.01794130668115
C        -3.49196695106203   -1.80131619978063   -0.85752986487730
C        -4.28351604530791   -0.67424770574855   -0.89371137912235
C        -3.92112195670918    0.40814171545516   -0.09045098424143
Br       -4.96194681424146    2.00174700622810   -0.07984761067539
C        -2.79895716021990    0.32488450012966    0.72020994326728
N        -2.04920043677651   -0.77009494289970    0.76904164300879
C         1.15335149683556   -4.15461800025807   -0.26596110519140
C         2.15252742088287   -5.08158771144151   -0.25798996003868
C         2.56078408860572   -5.70932143188885    0.94170006356579
C         3.58643443182437   -6.67050576082853    0.95906015595218
H         4.98152239714532   -9.08638751690806    0.39384310223690
H         6.36600987814901   -9.35295131479499    1.48249783726541
H         6.17393297785355   -7.78085214184253    0.66754309615623
H         3.61005999084013   -7.42441615864148    4.24813570700147
H         1.80395334480927   -5.74368258644039    4.27216614228025
H         0.38156094402155   -4.12184273597144    3.03952522552900
H        -1.57478667728265   -3.80668327824141   -0.53057765904361
H        -3.71950129128271   -2.65783771243340   -1.47163089528685
H        -5.15491443820764   -0.61958381777243   -1.52654077730500
H        -2.50651556404446    1.16218493657559    1.33596166736590
H         0.86123236573339   -3.65941772421387   -1.17891947557224
H         2.64688023970907   -5.35002732505255   -1.17932462658898
H         4.06588387987252   -6.91989724147444    0.02589220090413
Cl        0.67344390118622   -0.46197763735734   -0.41884495802243
