94
 energy: -145.680193406525 gnorm: 0.000755146650 xtb: 6.4.1 (afa7bdf)
Ir       -0.46434163670450   -0.36210109423899    1.63602584287802
C        -1.93008531969661    1.32988899254101    4.22684963012887
C        -0.70801297522044    0.73941589323568    3.61594870823921
C        -0.27975939773274   -0.61232787268242    3.83630880379670
C         1.03966177133734   -0.75576535294096    3.28002151227589
C         1.96822959916257   -1.88931394175834    3.54782695512271
C         1.37488687611130    0.46253397318803    2.62418619167502
C         0.28618584636482    1.40543959931549    2.83426560622007
C         0.41941942198727    2.84754745824688    2.60509077780838
C         0.16321155979402    3.74580253942696    3.64092688871724
C         0.41600820473569    5.09244187053854    3.48127443973767
C         0.93910194803085    5.58919579236411    2.28848897390244
C         1.27208952173875    7.01415670264031    2.15536021730120
C         2.40946266210421    7.41289040441916    1.45352465968546
C         2.73993108254644    8.75111438802711    1.34486177389592
C         1.93917362779010    9.71687244521298    1.93335048244900
C         0.80509618527448    9.33352027057864    2.63123866594004
C         0.47425907999698    7.99486735731055    2.74412867713745
C         1.16959005151288    4.69166336008430    1.24678993789779
C         0.91381665538061    3.34420864893092    1.39979007768442
C         2.70600531478369    0.79696188445638    2.04192869529489
C        -0.95168787952664   -1.58887803485113    4.74208729325107
H        -1.77488185618513    1.42327405153352    5.30257410095596
H        -2.79473628975820    0.68639584980493    4.07703011824071
H        -2.13763099062161    2.31149488824085    3.81300595046933
H         2.49344279312715   -1.68963413101878    4.48311131744023
H         2.70307778227637   -1.99747869906409    2.75595072708684
H         1.43416320959250   -2.82927208328137    3.65610966223182
H        -0.18615435117737    3.38611784931695    4.59554741535403
H         0.24265099361878    5.76540730089059    4.30752804937596
H         3.05181144375934    6.66767379416368    1.00841031498099
H         3.62747101484415    9.04291148843542    0.80238838926321
H         2.19732039502389   10.76229310359624    1.84913454263793
H         0.17224376952496   10.08122013898930    3.08668451232012
H        -0.43053486600918    7.71204815002124    3.26148391645040
H         1.54290576406828    5.05765290035644    0.30218021481311
H         1.08603965734130    2.66656313208650    0.57815413669591
H         2.71767762292511    0.62979776103529    0.96523780953175
H         2.93088758453506    1.84782669807029    2.21420536512755
H         3.48180436914448    0.18258606633794    2.49144505854516
H        -2.03281350603545   -1.48909736013057    4.69536795439414
H        -0.67699147365084   -2.60981429525069    4.49049490888812
H        -0.63896509506156   -1.39840138793923    5.76946773799584
C        -1.09577975444772    7.97019234848099   -0.49419877506688
O        -1.34299344917873    6.58388540906034   -0.28800538895443
C        -2.03922319404663    6.24414601581289    0.79896645281571
O        -2.45070714775460    7.04422979059469    1.61005049047616
C        -2.29037292381889    4.78310983303506    0.87367732815933
C        -3.20346077921960    4.31201154503856    1.81518510761975
C        -3.52827605429788    2.97171755084831    1.85790454932635
C        -2.90341227911623    2.07098217996968    0.99372160432565
C        -3.35301989697418    0.67007828088588    0.91553757666574
C        -4.71408286627800    0.45345146912742    0.68273780688307
C        -5.18848951087600   -0.82305127070878    0.43509886601848
C        -4.28029953781903   -1.86587837975982    0.41107877578515
C        -2.94365049500569   -1.59923718132615    0.69881786105446
C        -1.93901955452830   -2.62005346772198    0.70502345749406
N        -0.73338834497470   -2.28245502513601    1.03088521018973
C         0.27398798702429   -3.24651256589540    1.07780488877909
C         1.54633824052847   -2.94800415372697    0.53403083390334
C         2.53934349280455   -3.87959977022400    0.56227843001275
C         2.34213345052238   -5.14554203440408    1.16623624534354
C         3.35785047561732   -6.10513032750746    1.23660000402194
C         3.14558462628289   -7.32939890476223    1.84584088812886
O         4.19716617713848   -8.17938550031032    1.86387248545634
C         4.06234350084444   -9.44100146534504    2.48856757614110
C         1.87972769431770   -7.61649442016859    2.40340551263193
C         0.87427430617433   -6.69362573280508    2.34480529492119
C         1.06762454340256   -5.43759428041330    1.73063603645330
C         0.04592514265292   -4.47792596625178    1.66047282917622
N        -2.48792092040586   -0.34936192131694    0.97690838134409
C        -1.97200977645988    2.54016664948202    0.07112862991697
C        -1.67785727993327    3.88840731589662    0.00204842154043
H        -0.38613615626024    8.33993623361505    0.24833592467881
H        -2.02506601616003    8.53657712394714   -0.40848962672236
H        -0.68248473584006    8.05565503017526   -1.49542570796393
H        -3.66877064177153    5.01913374192428    2.48468683399893
H        -4.26720074512316    2.62086406482714    2.56248706987379
H        -5.37677784288404    1.30359220720308    0.66995939617533
H        -6.23604024386369   -0.99472304800105    0.24480421131396
H        -4.58472583823057   -2.87436406861864    0.18467841561948
H        -2.18367986058373   -3.63121546364692    0.40102983114656
H         1.69225188112293   -1.98653360331026    0.06823975401685
H         3.50179080076034   -3.66205867919257    0.12482070205037
H         4.32880610890619   -5.89847242698385    0.81503602213395
H         3.83861681644367   -9.33512347666487    3.55357928444709
H         3.29140052684633  -10.04663680496085    2.00466595096604
H         5.02844201483802   -9.92735687593575    2.36994804029134
H         1.70015153256895   -8.56764489584045    2.87815680884763
H        -0.09053860702613   -6.92488110673096    2.77096251339750
H        -0.91118820529411   -4.69870293858882    2.11028488185083
H        -1.50820856590582    1.85340163406967   -0.61748013588072
H        -0.98715143383580    4.25564719646240   -0.73846694318694
Cl        0.27060816807187    0.10475563554605   -0.58559362147741
