68
 energy: -103.727143820266 gnorm: 0.000326653666 xtb: 6.4.1 (afa7bdf)
Ir       -0.31624505787508   -0.68879666291390    1.72962341057128
C        -2.05370977930475    1.34206047921781    3.89831481402889
C        -0.77089476818054    0.74117870072317    3.43589740334452
C        -0.28232986925729   -0.51713067640597    3.95101195624754
C        -0.96423258763991   -1.32462128837765    5.00164829558732
C         1.07901594743534   -0.67754680045958    3.52110215900333
C         2.02642725922396   -1.70533149203543    4.03288651453437
C         1.38665378584656    0.40284494983337    2.64591938172754
C         2.72843236589368    0.71351363001353    2.07516733129389
C         0.23404206611428    1.29772099303660    2.59721380550310
C         0.30174537604819    2.66930067237482    1.98316361269368
C        -0.85376335868122    3.01853995516448    1.03922273302051
C        -0.60401627048944    4.38530464915485    0.40740786047214
C        -0.47062647730670    5.45741731814287    1.48637014096745
C         0.65363627742801    5.10530405413448    2.45732655479392
C         0.41649226344036    3.73479175788935    3.08581210704438
H        -2.85808270417204    0.60961826112557    3.88836917026058
H        -2.34481015450572    2.20078446079647    3.30487701722239
H        -1.92282152048760    1.66914466354533    4.93082195636997
H        -0.60008358896559   -2.34751773749910    5.00992117282483
H        -0.75828820240919   -0.88397070312081    5.97782510122930
H        -2.04096763542462   -1.33306104570210    4.85815479565979
H         1.51002356839756   -2.62431304763662    4.29394761314979
H         2.79963036807434   -1.93561682576691    3.30593033228328
H         2.50715691709393   -1.31765722139346    4.93166090638883
H         3.40082850794225   -0.13251359675514    2.17793831987501
H         2.65218086934124    0.97550566961871    1.02168522394969
H         3.15835985445387    1.56341520521062    2.60543032683441
H         1.21632244313393    2.71190458454766    1.38442742145655
H        -1.79909854084068    3.05953580456211    1.57972260812090
H        -0.92630080229665    2.25676714957013    0.26169323196922
H        -1.42716360289074    4.63621005278812   -0.26460719641684
H         0.31061031025101    4.35196869057129   -0.18857477694469
H        -1.41216319786209    5.54273363819971    2.03421454902859
H        -0.26919527451532    6.42549908677916    1.02360882258323
H         0.71679716304801    5.86185577679985    3.24208947438209
H         1.60528437579780    5.10288136260417    1.92082767763198
H        -0.50062745867821    3.76124563380668    3.67465073496987
H         1.24093157377741    3.48619523232453    3.75661210043637
C         0.89840670178452   -7.36810281737045    2.75788947347055
O         2.10324662971774   -6.73048544577448    2.37064390204213
C         2.05327190717265   -5.47385338451224    1.89644227079582
C         0.90553295020539   -4.69778460997634    1.77266800943964
C         0.98034941145892   -3.39401743122468    1.27654072815736
N        -0.18334331779125   -2.62417128759388    1.13964015439012
C        -1.22488911399433   -3.13123456353396    0.55482528740594
C        -2.36576248713408   -2.28331348253910    0.40869044192361
C        -3.52630619402008   -2.62939718329467   -0.29078165036362
C        -4.53923397053484   -1.70380985211254   -0.42226418220394
C        -4.35643452407970   -0.44507056237054    0.15098074089055
Br       -5.70473753067980    0.89017993560782    0.01243663763267
C        -3.18497309772552   -0.16115646645295    0.83936900884776
N        -2.21512181908384   -1.05694187595795    0.97314948079533
C         2.20102573678608   -2.84712526334987    0.89402834756472
C         3.34842050733227   -3.61595116341469    0.99033063187078
C         3.27027511328656   -4.89932087004617    1.48738796922442
F         4.39587240094553   -5.63482643016046    1.58720751787776
H         0.42166044936994   -6.84090079966807    3.58747008105202
H         0.20847397094939   -7.45017912792084    1.91471534551444
H         1.19354292970263   -8.36333470769789    3.08316942208282
H        -0.05096251462520   -5.08516368025556    2.08391972497202
H        -1.21569641267932   -4.13170834950219    0.13943711259403
H        -3.61365324043730   -3.61019957843665   -0.73017885867893
H        -5.44544796745363   -1.93700778385232   -0.95834092515506
H        -3.03091159845692    0.81105797393019    1.28231968863576
H         2.23291978171906   -1.85211093455763    0.48090399979488
H         4.30694523983513   -3.23220530676326    0.68037056627806
Cl        0.21384161719649   -0.13172628556173   -0.53117659080087
