59
 energy: -91.630051433524 gnorm: 0.000420045991 xtb: 6.4.1 (afa7bdf)
Ir       -0.38280296630026   -0.75900376821036    1.18919501382996
C        -1.69410962882191    1.39289940461492    3.50653029351010
C        -0.51485558736896    0.70632044219562    2.90809776549090
C         0.01755289491694   -0.55083811388448    3.36445379298451
C        -0.49308742225096   -1.33248884468346    4.52628900569436
C         1.29703727056105   -0.75199546628100    2.72325148585765
C         2.28868551083370   -1.78992700594492    3.12217218438261
C         1.49609649016495    0.30879680898230    1.80516606561258
C         2.72030101719273    0.60136443536678    1.01058398460287
C         0.35485795354511    1.20694602562705    1.89711463338276
C         0.29740228398679    2.54148591778965    1.23308083821857
H        -1.40445573477247    1.79058771148557    4.47991392741677
H        -2.52168363234531    0.70508304739596    3.66260286902650
H        -2.02889360032596    2.22328944389566    2.89237454927911
H        -1.57337896562885   -1.25545942393598    4.60839985848460
H        -0.21524558311124   -2.37979789515678    4.44688906318902
H        -0.05386499680429   -0.93566039402068    5.44233860926644
H         1.80351003664264   -2.73040949462873    3.37000769630672
H         3.01765317190276   -1.96668114733447    2.33684318221372
H         2.82117292648845   -1.44004456673048    4.00734131410691
H         2.45945084057745    0.87403674859282   -0.01029484883643
H         3.39405808257039   -0.25012047147512    0.98276142986089
H         3.24604763493772    1.44565234736404    1.45728647089544
H        -0.68342821702211    2.99696477354180    1.33055188259183
H         0.53714462562282    2.45177451413030    0.17579682606694
H         1.03324150579626    3.20448724347500    1.68899517639912
C         3.63466818906603   -7.69380970312994    1.71591294602468
C         3.75516360398291   -6.35478966801283    1.07349893032796
C         4.91575493681463   -5.93275403824952    0.51872317043856
C         5.06862307965705   -4.63769313572670   -0.10623306444133
O         6.08819007999560   -4.21336146908075   -0.60529602152992
O         3.96891386163993   -3.82270221197283   -0.12258171150682
C         2.78704356615431   -4.21380269781803    0.40582901626889
C         1.73286395445781   -3.30896374567653    0.32118966867383
C         0.49066472398828   -3.65062155097703    0.83414937654908
N        -0.56518421386387   -2.73756254368881    0.73316355653715
C        -1.71725640087977   -3.12639093605882    0.28335056283586
C        -2.74070918387185   -2.12886353821623    0.19713117385319
C        -4.01375163059667   -2.34507695162773   -0.33377661477582
C        -4.89891987491014   -1.28663126801366   -0.40666976066097
C        -4.48329987062667   -0.03703625216162    0.04255285513046
C        -3.20551601450472    0.10810612662114    0.55351106157363
N        -2.35183074500738   -0.90835937888913    0.64613392874161
C         0.30501983099954   -4.89499249088257    1.45157071632364
C         1.35349468629205   -5.77864680928071    1.54569015236881
C         2.61558176039864   -5.46613229490355    1.02237010753845
H         4.58823842336285   -8.21269202330895    1.69198217334591
H         2.89581157672195   -8.29708834120613    1.19103201877060
H         3.31666063606271   -7.59120011497955    2.75150016987219
H         5.80166890691183   -6.54775221421367    0.51608715173261
H         1.87952036083127   -2.36361773560471   -0.17724283839817
H        -1.88799529124456   -4.13965814307597   -0.06142204611208
H        -4.28145171197796   -3.32800858675748   -0.68588455726732
H        -5.88948668058489   -1.42430691721452   -0.81037673275352
H        -5.13988772344981    0.81627360339812   -0.00354701784948
H        -2.85483813641130    1.06899824165797    0.89767186485596
H        -0.65643038392884   -5.14379428991246    1.87225669616942
H         1.20178539395775   -6.73035462042845    2.02701588939498
Cl       -0.00994562049113   -0.36752657286291   -1.14230889182574
