82
 energy: -131.700775693815 gnorm: 0.000206842219 xtb: 6.4.1 (afa7bdf)
Ir       -0.00949313774434   -0.50988070963289    1.97578704420815
C        -1.27085283843212    1.20396309954166    4.63065226775798
C        -0.08651975389874    0.63351135379875    3.93174367467266
C         0.45826944949701   -0.67403541905254    4.15279124458482
C         1.70625703276164   -0.76524330523667    3.43225595777537
C         2.71725339449638   -1.84355641172419    3.61462465624347
C         1.88446466886087    0.44109096206791    2.70064147057009
C         0.75336203594624    1.31277015777415    2.99325672207279
C         0.70037921422240    2.74853013026636    2.67193999152529
C         0.70126052231013    3.67460980359502    3.71451049675630
C         0.72726648138915    5.02828427429093    3.44582931743591
C         0.74986614435873    5.49781561033081    2.13319112071414
C         0.81831916996226    6.93999883989586    1.85396575997690
C         1.64273063974466    7.42217330051867    0.83890544301181
C         1.72748621664047    8.77866506054622    0.58504753973209
C         0.98511116161667    9.67577906222575    1.33585624373162
C         0.15986657063113    9.20733134879874    2.34533352731723
C         0.07930528994009    7.85155786419595    2.60545504053102
C         0.72877357298714    4.56675091910486    1.09554537012487
C         0.70563246850686    3.21159297548768    1.35876692476782
C         3.10936435367087    0.85634977810984    1.96503261653056
C        -0.02537634211862   -1.64919651245744    5.16934009748552
H        -1.00780156147045    1.39260005940756    5.67199519035754
H        -2.10979608950382    0.51133740428330    4.62672393707260
H        -1.57389580458552    2.14440560997160    4.17872790292202
H         3.28115420479768   -1.63657635502427    4.52484827024456
H         3.41355530746463   -1.87731328037641    2.78288631095333
H         2.24797275750920   -2.81779904803488    3.72372349419410
H         0.71663956421089    3.33145276523696    4.73745867111811
H         0.75771312304481    5.73252987374757    4.26341614218507
H         2.23891823738062    6.73122639191869    0.26098921542214
H         2.37784631615973    9.13918261610847   -0.19878142546615
H         1.05092351249919   10.73526628149226    1.13591722775365
H        -0.42226473851888    9.90316763680628    2.93217604283478
H        -0.57727050540773    7.49578028578393    3.38583790177773
H         0.71836409319663    4.90956292867677    0.07184623548835
H         0.67116488678707    2.50461154702611    0.54417894909548
H         3.60560047764375    0.00560888866012    1.50670413709035
H         2.86983107351991    1.58488769190741    1.19591875166782
H         3.80228330201414    1.32017659987747    2.66863460353477
H        -1.10149340996675   -1.57984360640748    5.30047329084611
H         0.23640614001166   -2.66777877112181    4.89576422152840
H         0.44694103059650   -1.42736799174506    6.12727820915567
C        -8.11202422030698    0.24981062961926   -0.11241576080654
O        -6.74512098078237    0.26209199591145    0.30067310251080
C        -6.03013326359133   -0.82941939203542    0.07169526042346
O        -6.44463284533247   -1.83092797515377   -0.46163845754581
C        -4.62034111035077   -0.68884139299927    0.55983762624447
C        -4.12284822665480    0.50384904690095    1.09098897876298
C        -2.81228749581693    0.54666148866658    1.52889996960339
N        -2.00117017288862   -0.50786496469820    1.47625954037560
C        -2.46473273521406   -1.66548255563723    0.93956402846033
C        -1.48235349472853   -2.70605367596748    0.86657547027825
N        -0.29427448755014   -2.41720552651458    1.29179342412056
C         0.72913606025928   -3.36867499276502    1.22093163451044
C         1.96372286673200   -3.00200677257568    0.66982796452971
C         2.97331995143527   -3.92818930467033    0.56874033791273
C         2.80379215192768   -5.24074975574791    1.03211338622857
C         3.82439411867113   -6.26298225693785    0.96127100648598
C         5.15890087510919   -5.95010607824563    0.37782810127761
C         3.52402226347186   -7.49542067852818    1.43492961908873
C         2.24176149722364   -7.82970174133813    2.01442025950390
O         1.92844251355152   -8.91429477311995    2.45406352131647
O         1.30821578535831   -6.82954244158447    2.07219846315205
C         1.56424592990600   -5.59120150041209    1.59538723251303
C         0.52969776096355   -4.66262707897312    1.68217681091413
C        -3.77269996199550   -1.78360845723479    0.47380991470528
H        -8.19540024358124   -0.12544325517936   -1.13333053829645
H        -8.45430481892003    1.27869775907789   -0.04663110702721
H        -8.69487758281559   -0.39173811292408    0.55028868096623
H        -4.74933563098844    1.37741804485141    1.15946951666008
H        -2.39789964518740    1.45849391573543    1.93306223793440
H        -1.71746128704035   -3.66678810432973    0.42356137299974
H         2.08691330226742   -1.99923098759135    0.29040333022593
H         3.91183045417336   -3.64292254804322    0.12359047710119
H         5.05188882813857   -5.62379253389120   -0.65509565095175
H         5.63865226694361   -5.15035388756053    0.93869647515986
H         5.79863871228024   -6.82704586834322    0.40245612942671
H         4.23670866131902   -8.30425286843348    1.40675976687354
H        -0.40292495322989   -4.96555620551732    2.13078315079688
H        -4.12956796349810   -2.70807865495162    0.04660441396779
Cl        0.32439288758385    0.05429875050618   -0.31869149805346
