63
 energy: -98.004363959223 gnorm: 0.000950315793 xtb: 6.4.1 (afa7bdf)
Ir       -0.66971196267482   -0.91970347563936    1.34933480371160
C        -1.91907762025182    1.19878515758013    3.79952679628648
C        -0.79645010173107    0.41336414562710    3.21428223045041
C        -0.50588121614496   -0.95599823643489    3.56694969274126
C        -1.25805328415940   -1.74998334671024    4.57979484324679
C         0.79260897708744   -1.28545456242671    3.03601653823101
C         1.59174452468506   -2.48751974216690    3.40062256745514
C         1.23127144501575   -0.18646771786558    2.24773383651993
C         2.56589563137535   -0.01797861740947    1.60864039495810
C         0.24496295497567    0.87669984511301    2.36656031123864
C         0.47396082633763    2.26634148939834    1.87408512700001
H        -1.71266257648504    1.35920141906198    4.85806434960837
H        -2.86121313077391    0.66180513888390    3.72267595279150
H        -2.02871089760818    2.16602264736640    3.32058554189725
H        -2.32205054918744   -1.53497079604691    4.53420594939242
H        -1.10494680614478   -2.81613536625460    4.43858452658696
H        -0.90249052786961   -1.48660533043418    5.57673473470052
H         0.95523568721370   -3.34285374773494    3.60907602599260
H         2.29326216986915   -2.75439448891691    2.61513459763740
H         2.16019060130221   -2.25925615216182    4.30308270860652
H         2.46761993247085    0.47764722499356    0.64559900811290
H         3.05708247596922   -0.97526076409114    1.46419749221370
H         3.19486411019620    0.60370409191681    2.24619637409676
H        -0.37284632101222    2.91239616490188    2.08577120143311
H         0.66267254799664    2.26946262903245    0.80162658033988
H         1.35461169907318    2.67788221642781    2.36674654120353
C         4.93680809091691   -5.93826487461357    1.77410382717343
S         3.82112082875642   -6.54038955694809    0.48133479458240
O         4.45880206122581   -6.37265716303188   -0.80248936064443
O         3.37196551197857   -7.86750173476758    0.82989609294421
C         2.41056694729565   -5.42237310597609    0.56449790790719
C         1.25161767982772   -5.83418804992973    1.19578510046155
C         0.16226206046958   -4.98293387223249    1.24767097715115
C         0.25198109349253   -3.71273736069720    0.67427840943957
N        -0.83566693095265   -2.83031849334893    0.71103202331391
C        -2.01704145311969   -3.23529361697814    0.36291058256009
C        -3.05687581410881   -2.25469156303842    0.35182624514711
C        -4.38012825015951   -2.54307125269284   -0.03790505026544
C        -5.29432699639698   -1.52974548003464   -0.08931254078590
C        -4.87554818289497   -0.20659305491000    0.16983374822303
C        -5.74442199330263    0.89585780214484    0.05181326555751
C        -5.28640144028192    2.17133940217750    0.24684170329231
C        -3.93441090272712    2.39384164514479    0.55400954488529
C        -3.06981577151401    1.34322942164203    0.70455377560909
C        -3.51525955512971    0.01858622960303    0.53814021075390
N        -2.65560713862385   -1.01907113368507    0.69363160525829
C         1.43354559107473   -3.30103804480136    0.05420604820748
C         2.50992752926476   -4.16664359861115   -0.00903019396746
H         5.80702769669078   -6.58359795384899    1.77883236071884
H         4.41639884737508   -5.99802505409737    2.72048897701209
H         5.22044146897426   -4.92320079429802    1.53096447178703
H         1.21722351711320   -6.82379664861161    1.62276550569023
H        -0.74568310600976   -5.28951260893027    1.74396328866375
H        -2.19692952658667   -4.24653617361021    0.01701269094123
H        -4.64424613043096   -3.55923460914975   -0.28023095678330
H        -6.32394874996204   -1.71736162727206   -0.35215706160826
H        -6.77433318917018    0.71286770793535   -0.21323094961073
H        -5.95488865649221    3.01205336259081    0.14671023264679
H        -3.57807595419341    3.40625084533516    0.66341963583940
H        -2.02212540050644    1.50742899407541    0.89597497596951
H         1.47673932755157   -2.32157978563763   -0.39767653524292
H         3.42028306449423   -3.88951982179419   -0.51572633446922
Cl       -0.14080576345440   -0.20786120311126   -0.87013874483731
