75
 energy: -106.285992127397 gnorm: 0.000700703200 xtb: 6.4.1 (afa7bdf)
Ir       -0.70499465648641   -1.35062947658964    1.48974372866939
C        -1.08029492176223    2.65369546343598    2.93716341368083
C        -0.29414206713585    1.40360909937936    2.94514846742855
C        -0.77627555017529    0.09636682083706    3.13154136290844
C        -2.09649211430850   -0.23996183796975    3.79152260578015
C         0.40288567838758   -0.79297203887006    3.16278524016641
C         0.50047794620758   -1.91533681552007    4.16502527001794
C         1.57333310006138    0.09063956868429    2.94706931795991
C         2.95677989029745   -0.42898237876466    2.85951066186032
C         1.13706568534362    1.38094366315901    2.82301281870375
C         1.94657476182577    2.60232026703847    2.55881892494835
H        -0.82913042269341    3.24258309165322    3.82063704643937
H        -2.14975932783552    2.46803833582975    2.93590559369904
H        -0.81941073873277    3.25492029788089    2.06745750330954
H        -2.89040657577751    0.40740672796087    3.42540956223614
H        -2.38980769777767   -1.28004761775259    3.62328755434879
H        -2.01347885771457   -0.09705986399078    4.87030952024071
H        -0.32328582742138   -2.62451901219278    4.07303881710386
H         1.44244101649935   -2.44455631323877    4.05542100142299
H         0.46467881061514   -1.49765229790750    5.17247406795403
H         3.62377247462979    0.30034813998308    2.41181419590963
H         2.97452882477874   -1.33394984011753    2.25755992270643
H         3.32821067331464   -0.67254794053466    3.85582480660177
H         1.74283816490204    2.97360601744205    1.55482739494635
H         3.00835369314614    2.39358734001497    2.63883616176539
H         1.69292098164267    3.38918353320477    3.26683858904864
C         3.89711917596777   -3.77211035967563    0.80664642290285
C         2.84641981018443   -4.86912648407641    0.93925767507776
C         1.47500916125408   -4.35727710560026    1.40055129994317
C         0.61765918324832   -5.49340310342790    1.97410527230137
C         1.06974232128979   -5.94979998992130    3.35844591079093
C         0.76741241854035   -3.70344600006295    0.19443458622330
N        -0.48327100479828   -3.07113376384433    0.51843609331972
C        -1.58201087663769   -3.68020985280540    0.22629885426966
C        -2.83353112186446   -2.97870018949500    0.36063842620818
C        -4.08068613416961   -3.58234917867857    0.22659804293023
C        -5.20888233615211   -2.78037918395761    0.28535660845683
C        -5.05472389940096   -1.41173185612678    0.43031320148611
C        -3.77320032579204   -0.86807298739277    0.55270446113374
C        -3.57391558084219    0.58528466506357    0.57631199898471
C        -4.48650780808659    1.43227843510311    1.20807885141964
C        -4.34022936406748    2.80102775235152    1.11514875193986
C        -3.28256248392450    3.34842621247367    0.38957241166363
C        -3.19422310649378    4.82690224164112    0.27724095022280
O        -4.03932397153646    5.58992930513839    0.69254080296372
O        -2.07679022875148    5.22690540296990   -0.33379848397672
C        -1.90581111974352    6.62990655734520   -0.51479197764610
C        -2.35385339472766    2.50570530546349   -0.21754436119465
C        -2.49758513400419    1.13556855831061   -0.12179419169384
N        -2.69362524806455   -1.65049783461141    0.55430173439337
H         4.11628878560565   -3.33690685357084    1.77809202156446
H         3.57235674961112   -2.98247782362289    0.13451368558289
H         4.82005032717477   -4.19063946499591    0.41302518855674
H         2.73377834642321   -5.38474850064553   -0.01682240383979
H         3.21057957984375   -5.60252727564545    1.65918880757214
H         1.61737893858918   -3.59478011283008    2.16976486390419
H        -0.41894038336484   -5.15871689700798    2.05518771033119
H         0.64285517784426   -6.34307011150098    1.28846999773919
H         0.41260501377636   -6.73583593091257    3.72355803939343
H         1.04042337193553   -5.12447762232728    4.06571033586215
H         2.08180284173234   -6.34498963959990    3.33737164589551
H         1.41694286427108   -2.92251172228400   -0.20773090116276
H         0.60462254297556   -4.46969179580268   -0.57024491776319
H        -1.58251305958106   -4.67838389212442   -0.20035855411089
H        -4.15435888334768   -4.64819065362694    0.08567120797524
H        -6.19345102548890   -3.21148169599433    0.19258804326845
H        -5.91133444929435   -0.75827963682427    0.41378485155835
H        -5.30424410704939    1.02242872552343    1.78173873582394
H        -5.04099012783859    3.46866824556018    1.59253478879630
H        -2.68005711554199    7.02154664142420   -1.17712050534121
H        -0.92218107030412    6.75693313606091   -0.95783097978401
H        -1.97052670586208    7.14582708854643    0.44495032336491
H        -1.53350655421301    2.92697632519986   -0.77507589429727
H        -1.79780829341753    0.48713653393659   -0.62603852046945
Cl        0.78716436063283   -0.37217454635767    0.05092953827439
