67
 energy: -113.954488712389 gnorm: 0.000795589864 xtb: 6.4.1 (afa7bdf)
Ir       -1.01333521801711   -1.25944457853833    1.27960019596868
C        -2.24850564571260    0.66585611765418    3.83824810915714
C        -1.09158609151802   -0.03068339348370    3.21008132140725
C        -0.71448615361888   -1.38992782587385    3.48582027096455
C        -1.36874428672506   -2.27097157192593    4.49503048680466
C         0.56882417333995   -1.62635360705781    2.87476923013317
C         1.45839279777826   -2.78528518688073    3.15980970931856
C         0.92268394358782   -0.47436265829113    2.12395480601206
C         2.24325037630069   -0.23059493673856    1.48288602803735
C        -0.11733473488964    0.52524424459443    2.32831253618843
C         0.02326045903856    1.94564587214898    1.96741021929968
C        -0.00966974901165    2.90887500379363    2.97475121843145
C         0.17491611231310    4.23705934781833    2.64057949098543
F         0.14565942288285    5.16102383023631    3.62306987088867
C         0.38846297713012    4.65672402115695    1.33972368361450
C         0.41199037873073    3.67682349542523    0.36226081577650
F         0.61284632620251    4.04943668236042   -0.91816377356665
C         0.23494937094235    2.33633190002748    0.64627710714649
H        -2.43505598493946    1.62870243640318    3.37278569779535
H        -2.03079866573230    0.82239687316264    4.89529789538829
H        -3.15167136084090    0.06279298614677    3.77744720050552
H        -1.14947948061717   -3.31729863443358    4.30271272616139
H        -0.98627217905251   -2.02219365829829    5.48572756360532
H        -2.44522088782322   -2.12560771657515    4.50404321905182
H         1.96686749335110   -2.60268674170517    4.10744261744512
H         0.89942470127465   -3.71279254508416    3.25214458770059
H         2.21263708056432   -2.89771204960901    2.38695307285116
H         2.58807740460419   -1.09856045815324    0.92427980228743
H         2.20203834202333    0.62084954180173    0.81064593265918
H         2.97960865836759   -0.02036272617068    2.25967932291661
H        -0.14930675085960    2.63559255255963    4.00746358575508
H         0.53074708030531    5.69692117078490    1.09858353392708
H         0.23553351803292    1.61311140968165   -0.15517559493213
O         3.62840730251526   -3.04908171100848   -0.46183631247006
C         3.30474666826941   -4.21483205443620   -0.42263329243690
O         4.10073989876761   -5.20778451345649   -0.79185359530895
C         1.97766094886541   -4.67332708695363    0.07143652948300
C         1.76626923662889   -5.98453605402630    0.49196805110622
C         0.52832293752007   -6.34927248796637    0.99653410710907
C        -0.50140860751371   -5.42836937811877    1.07092704356762
C        -0.29545134482904   -4.11659601865684    0.63498139263522
N        -1.32007112288213   -3.16136990707991    0.68033970726948
C        -2.52687195965534   -3.48428446882672    0.33612221125688
C        -3.50359572917837   -2.43977890137768    0.33661144995607
C        -4.84607422375199   -2.64990508632947   -0.03469763033212
C        -5.70004354293949   -1.58445142974135   -0.06931004341790
C        -5.20197741980494   -0.29085627919179    0.19517610845186
C        -6.01233156116362    0.85776617432662    0.10297159719264
C        -5.48502161879300    2.10423432766021    0.30741128856178
C        -4.11916722043306    2.24904139019066    0.59835490746123
C        -3.30918810499375    1.15238956589706    0.72123817360795
C        -3.82477618348468   -0.14518130894293    0.54427501417193
N        -3.02379435203860   -1.23198566304151    0.67456292738645
C         0.95151644495792   -3.74032053048789    0.14708841710215
H         4.96790573537935   -4.89131435665194   -1.10288415864020
H         2.57054861710740   -6.69960992033647    0.43299563975064
H         0.36536419444208   -7.35941896248946    1.33835258517504
H        -1.45405315842377   -5.71307240874873    1.49078835171584
H        -2.77700473600270   -4.47959166286814   -0.01220980528995
H        -5.17251850736433   -3.64760616099209   -0.27732755688429
H        -6.74190227066419   -1.70954183679113   -0.32067933988027
H        -7.05439117602876    0.73344376127541   -0.14807472904775
H        -6.10842125021679    2.98078891863105    0.22857852611542
H        -3.70481292025547    3.23752147217826    0.72082724750249
H        -2.25374037760998    1.26843797519741    0.90375218002675
H         1.11496302382605   -2.73436554852866   -0.20939167052561
Cl       -0.55049504765251   -0.70863204523171   -0.99567781207957
