68
 energy: -100.147581402366 gnorm: 0.000241395699 xtb: 6.4.1 (afa7bdf)
Ir       -0.21106722990115   -0.46669903117063    1.52654318671971
C        -1.93787892999028    1.41292306436912    3.82368527580203
C        -0.65259479797384    0.86099476232237    3.30596631756667
C        -0.10292816425204   -0.38522723856734    3.77630764348699
C        -0.72757046367870   -1.23422306705435    4.83135747402743
C         1.25664170984848   -0.47586880321947    3.31049919097978
C         2.30334540981683   -1.41593794470231    3.80095855851567
C         1.49976101502764    0.63660949871976    2.46450190165957
C         2.82027607325275    0.99741124849498    1.87560056700177
C         0.31033239832479    1.47710736735717    2.44861672747601
C         0.32797645908613    2.87213001507587    1.88463563653228
C        -0.84637072560403    3.22382477468450    0.96639487210963
C        -0.63702667406296    4.61681798856094    0.37824099230972
C        -0.51703614753628    5.65518240804332    1.49144267334681
C         0.62732731085071    5.29865480841846    2.43696830286396
C         0.43176141219150    3.90219916943617    3.02132533308136
H        -2.73384119499243    0.67256605429004    3.77788267062077
H        -2.24537988557375    2.30448674740844    3.28952444772957
H        -1.79659208417642    1.67613086737177    4.87284556504778
H        -0.31800446242159   -2.23982069540665    4.82783316352623
H        -0.52918087788966   -0.79081107560065    5.80803599240617
H        -1.80451779020166   -1.29395434922552    4.70208519043128
H         1.87905454376769   -2.21083653015555    4.40429252133704
H         2.86011925774797   -1.85906776416850    2.97838250008748
H         3.00670120993136   -0.85589403168414    4.41823336240186
H         3.50684205330588    0.15749393388648    1.92386180179262
H         2.71446806387541    1.29701579054203    0.83474828308828
H         3.25018967831248    1.83259660249389    2.42901887813572
H         1.23287743771824    2.95877372377403    1.27594502377437
H        -1.78578552448025    3.22375882679782    1.51901458098682
H        -0.90722661948315    2.48551002189033    0.16530164369441
H        -1.47298487787226    4.86958851113427   -0.27691775978250
H         0.27175263198208    4.62524953705719   -0.22763436060754
H        -1.45350210978444    5.69774255781347    2.05285956373607
H        -0.34507302355136    6.64330747136555    1.06004735287739
H         0.68262651135780    6.03012527839797    3.24587003991021
H         1.57204838552288    5.33702515478995    1.88948074895319
H        -0.47719802974318    3.88655534718368    3.62295115074811
H         1.27100737020739    3.65154007438955    3.67280163165109
C         3.72550997728728   -6.00172952963315    3.62448021169350
O         2.61158474568770   -5.15045709724653    3.41965501115959
C         2.37827687010658   -4.66068624314682    2.18528004055681
C         3.14994074036111   -4.92516709007167    1.05350438115387
C         2.80342987118995   -4.36931419733169   -0.16677460603790
C         1.69682571746046   -3.55236218188814   -0.26767221712178
F         1.35944051875871   -3.03621123345093   -1.47006509135326
C         0.92474961105077   -3.24286475728433    0.85744316099064
N        -0.18198113335297   -2.38307263089866    0.77258294715284
C        -1.13381114172895   -2.66603986382041   -0.05862114850530
C        -2.21450097167008   -1.73240631931550   -0.14912968173966
C        -3.32072381055958   -1.89140826299514   -0.98594845137934
C        -4.30424041047906   -0.92192352343412   -0.99000148778088
C        -4.15309481009777    0.18117588129006   -0.15554479135641
C        -3.02727205065028    0.27794061735565    0.64233459973757
N        -2.07411178276847   -0.65139261099346    0.65920262144632
C         1.27153249928001   -3.81557171968110    2.07145065751269
H         4.66233154694340   -5.49200455712737    3.38582037333856
H         3.64065648966767   -6.91687574981618    3.03365971471232
H         3.70686309253894   -6.25057231869167    4.68329505838957
H         4.01407518007169   -5.56590638384603    1.10436850722742
H         3.38503053785386   -4.57422370167420   -1.05117163536134
H        -1.12456789770611   -3.56937363459962   -0.65826109006777
H        -3.38323055964994   -2.76115612699536   -1.61960926009707
H        -5.16904542879642   -1.01669084389078   -1.62721682910601
H        -4.89876226733710    0.95843960918966   -0.12262164111587
H        -2.88786458033323    1.12768190393758    1.29121203705013
H         0.65961959919887   -3.63572076810391    2.93855373469808
Cl        0.47328352855114    0.16049925901466   -0.67020077190630
