69
 energy: -115.165339928966 gnorm: 0.000702494806 xtb: 6.4.1 (afa7bdf)
Ir       -0.34077900784968   -0.91795440472268    1.70468849930090
C        -2.48369289544970    0.66998770252780    3.87534994587871
C        -1.12868872375431    0.12781516888650    3.59353165944348
C        -0.71841143012046   -1.21219411443999    3.89650999002392
C        -1.55149981692256   -2.22267067101423    4.60841250180217
C         0.69966649854516   -1.30422422125642    3.66866416168828
C         1.59256021692934   -2.37149206096362    4.20097792433131
C         1.14476781679423   -0.05434047935792    3.13401242127596
C         2.56951051693369    0.32672678781501    2.93058356458405
C         0.00444736603239    0.83828069752901    3.08614469327958
C         0.10323278752361    2.28849003268475    2.87150580863804
C        -0.37564358570645    3.16018547327240    3.84733082115225
C        -0.24250151151112    4.52246816777298    3.65622935594166
F        -0.70746875672394    5.35758357139645    4.60805474763074
C         0.34508548009007    5.06374545418294    2.52704937037335
C         0.81315310712623    4.17075844893161    1.57864490259624
F         1.38074105044596    4.66280575252285    0.45661565070541
C         0.71136482291890    2.80156835254547    1.72696696014103
H        -2.61647429444932    1.65273299462087    3.43527372158767
H        -2.61349832753228    0.74410374499029    4.95586499975226
H        -3.25868873758286    0.00465998773874    3.50101727433081
H        -1.23298891014675   -3.23493607887787    4.37720062324001
H        -1.44756390335823   -2.07354800371083    5.68377273886586
H        -2.60142520587691   -2.11492219142166    4.35327282989162
H         1.86256590977266   -2.09918598271088    5.22299753656582
H         1.09590123799827   -3.33578304074769    4.24061032749641
H         2.50914587395231   -2.45027822973851    3.62584383676201
H         3.01237392378529   -0.23506639880866    2.11047421123148
H         2.65622652123470    1.38519106312302    2.70346390993134
H         3.13460724943198    0.10862107641151    3.83586241171669
H        -0.82312499053349    2.79494897302864    4.75644631685530
H         0.43626054433560    6.12873200059608    2.39305267465358
H         1.06846194344058    2.14662072759730    0.94748349298078
C         4.79695168771339   -4.62834835590627   -2.65118383009249
O         4.14494177937972   -4.72789670184148   -1.38508803932742
C         2.82023475248079   -4.61408814477621   -1.36957783876862
O         2.13540961538384   -4.45802839542230   -2.35126642925599
C         2.29072963704816   -4.68326061533823    0.04580445534661
C         2.06504857895058   -3.30325448836675    0.70514042662386
C         0.65220496585421   -3.76031382603234    1.12323007115775
N        -0.39576558675831   -2.79379756090989    0.92724885893275
C        -1.43476871979668   -3.10294146693655    0.22987101995977
C        -2.37196707961510   -2.06528196039498   -0.08628406388798
C        -3.44343744535861   -2.24770670176370   -0.95982262889862
C        -4.22682802149870   -1.15771310816620   -1.27815569351172
C        -3.88998822878442    0.09780670785665   -0.76444790838171
C        -4.76539411186730    1.17171409731201   -1.03896469528233
N        -5.53889386647473    1.98862062889139   -1.26177419795075
C        -2.75764050040178    0.22599817743999    0.06858168024938
S        -2.15223457640651    1.73500735583148    0.69047551394101
C        -2.50270143015930    2.96061306991818   -0.60128446605518
N        -2.06746201125563   -0.85971270603042    0.44475642031374
C         0.78448709867490   -4.96139358630285    0.16574418854032
H         5.84340040461211   -4.85439358390431   -2.46876787115740
H         4.36350558252116   -5.33982136353068   -3.35576844448534
H         4.68535882294829   -3.61943989672772   -3.05147504655313
H         2.92937404050478   -5.33588076446970    0.63785115109402
H         2.02202266342413   -2.49740190726396   -0.02331234386165
H         2.75438135462071   -3.04220890531897    1.49967551478718
H         0.62550439417083   -4.07885802328411    2.16772299494485
H        -1.58891405714618   -4.09815452376274   -0.16848830189852
H        -3.64705545218586   -3.22197498545840   -1.37113380900182
H        -5.09156550832041   -1.25464127721327   -1.91664633413044
H        -2.42193119460096    2.49626138904109   -1.57821538476997
H        -3.47778859126398    3.41372144645688   -0.45849448119331
H        -1.72348453494903    3.70976068353732   -0.48883958934067
H         0.31602677522078   -4.79541110448430   -0.80247760709268
H         0.49857905479889   -5.93126166883797    0.56142002504839
Cl        0.77555693880765   -0.18881923422215   -0.25732020069570
