63
 energy: -101.858578391724 gnorm: 0.000695922865 xtb: 6.4.1 (afa7bdf)
Ir       -0.99095636349439   -1.51488561647087    1.30912882753625
C        -1.96784795936322    0.92905262416489    3.52621936739197
C        -0.92329534238473    0.02004563798207    2.97444936147999
C        -0.61337527552087   -1.29566588556806    3.49411655544278
C        -1.27635073206647   -1.93578168478729    4.66456143079228
C         0.61428787161120   -1.73242492412555    2.88830272794005
C         1.40633269255118   -2.92182195319511    3.30346760038634
C         0.99719798259696   -0.75582854956826    1.91930961141839
C         2.28627190515262   -0.70018454567456    1.17381484665609
C         0.05765393213222    0.35115938517965    2.00356379644078
C         0.24369683673447    1.65483476319828    1.31059841755427
H        -1.54576664068208    1.46386128158107    4.37839928213694
H        -2.83394277783071    0.37474703036099    3.87742352332786
H        -2.28202978669254    1.66762040022417    2.79338244369441
H        -2.33935430421590   -1.71365421458228    4.68863511752467
H        -1.14095590151164   -3.01324150152091    4.65300024699184
H        -0.82935244357936   -1.54843871771281    5.58095607355677
H         0.76356039400120   -3.73646745078431    3.62498488612821
H         2.04595034831658   -3.27360891318224    2.49913427643835
H         2.03888853783404   -2.63723860387908    4.14494052402709
H         2.14215323177489   -0.25664949675125    0.19205460792555
H         2.71898658436683   -1.68912989624705    1.05754053135984
H         2.99007112603067   -0.07641032533746    1.72590684881766
H        -0.60424430560076    2.31453387466343    1.46410784924818
H         0.37962239962322    1.50427640226866    0.24143643461788
H         1.14013857018125    2.13927183512890    1.69704456764215
C        -9.12192833293036   -1.61116036795865   -0.82755480382440
O        -7.78044936961543   -1.46556200837300   -0.36010685729810
C        -6.98200103562740   -2.51722989704445   -0.47689767548073
O        -7.30644965601490   -3.58247792954652   -0.94558353497545
C        -5.60419645334081   -2.23562146319404    0.03737829436835
C        -5.25665531266090   -1.01689847892295    0.62611719989041
C        -3.95858426563471   -0.83253833718904    1.06370776379511
N        -3.01872249153488   -1.76898856322212    0.95525174623165
C        -3.34299625735582   -2.95431692625865    0.37744778214627
C        -2.23970500999248   -3.85888836871765    0.25141092719492
N        -1.08225960051984   -3.41559401444587    0.62764896954379
C         0.05721290614204   -4.22764806657593    0.51733118537487
C         0.09354511011592   -5.48270708666055    1.12657190199861
C         1.23408503367299   -6.25907597465224    1.01881858739149
C         2.31409541657250   -5.78936415738941    0.29490193758551
S         3.79074803534737   -6.81348553382379    0.14940313566242
C         4.90257625655235   -6.15949974944903    1.42133415988316
O         3.43713934038457   -8.17127635027982    0.48869788229151
O         4.37779133420241   -6.58423378072217   -1.14904760054141
C         2.28338015104067   -4.55108460376320   -0.32278330130797
C         1.15533620149691   -3.75946301822786   -0.20561207230175
C        -4.63086145922436   -3.21568164720535   -0.08666479414183
H        -9.12611190125012   -2.00152220716542   -1.84643175305233
H        -9.56025429526276   -0.61811401998163   -0.79048208263945
H        -9.66997512398121   -2.29957522633679   -0.18245489685523
H        -5.98929177553153   -0.23487343266827    0.73643035541419
H        -3.65976468052025    0.10140085277755    1.51545633431376
H        -2.36423156570440   -4.84302337442202   -0.18450463755905
H        -0.75732121370710   -5.83366899479413    1.68916357846590
H         1.29745635832152   -7.23589158886645    1.47056914555051
H         4.41043073211011   -6.25882435244047    2.37959162052417
H         5.11988216753835   -5.12720732928887    1.18175140464044
H         5.80913149882021   -6.75182312205643    1.39723554939268
H         3.13339355668453   -4.23210848520037   -0.90439377499153
H         1.09293934142882   -2.79853936252712   -0.69269072469362
H        -4.87381504725329   -4.15889205159653   -0.55071863617194
Cl       -0.91273017272631   -0.83154693719759   -0.97760307230333
