82
 energy: -127.477865071020 gnorm: 0.000783896840 xtb: 6.4.1 (afa7bdf)
Ir       -1.14017754725719   -0.50126242321807    0.96800804962551
C        -2.18260102712463    1.66368545252145    3.49555167692375
C        -0.89564198234240    0.96508222929145    3.17226934721471
C        -0.78301139714728   -0.50533961778085    3.10042908235914
C        -1.71921516525997   -1.34823930070409    3.92420805283171
C         0.68659006155406   -0.78602886993818    3.25899079235920
C         1.28017915286985   -2.14949495173795    3.30751730085808
C         1.34060556541472    0.39355203876116    3.36748887188386
C         2.80783330414800    0.59114037029472    3.51661272642149
C         0.37578414127614    1.49025715414878    3.29498525897571
C         0.80039453538381    2.92018089132331    3.31932461942820
C         0.44753777432440    3.59981582594279    1.98669947264315
C         1.00759834141826    5.01679132568471    1.95357802515062
C         0.45637703224701    5.83467317640956    3.11816135920302
C         0.78492045525181    5.15650209613656    4.44664430525085
C         0.22021318017828    3.73871260171450    4.48182408871133
H        -3.04299630992976    1.07336459566289    3.20009124355170
H        -2.24552278937972    2.63546633714590    3.01659218639990
H        -2.23655638839581    1.81150650364304    4.57448348195836
H        -1.63141691345417   -2.40463952893146    3.68913884728335
H        -1.43149859880318   -1.21888480574980    4.96844472752883
H        -2.75298144039504   -1.03572397655206    3.82223766096158
H         0.52724908920258   -2.89875902059489    3.52254833402532
H         1.75061746547228   -2.39051369090648    2.35462704075145
H         2.04736090155050   -2.19588813833616    4.07731581284622
H         3.31892595401864   -0.36407908907058    3.58156422750077
H         3.20248878725581    1.12641856961176    2.65297489804994
H         3.03382925729137    1.17251621629360    4.40971735476948
H         1.88917322833938    2.94836320851700    3.41945392835741
H        -0.63588633023564    3.63718539487667    1.86556163018388
H         0.85735811159285    3.01699067781624    1.15888024327872
H         0.75139262346730    5.48718633936550    1.00100747929410
H         2.09813954983173    4.98259355486048    2.01658300750494
H        -0.62753303278812    5.92786252892304    3.01495632524859
H         0.88166478571988    6.84036470921781    3.10078733203016
H         0.36825716304283    5.73845029099196    5.27130493955398
H         1.86941758251533    5.12618138464048    4.57709584695581
H        -0.86396368023532    3.79021900227341    4.40552068144806
H         0.47600855878866    3.25836283889252    5.42795056713934
C        -1.62377995134853    7.64120992755845   -0.29728834175286
O        -2.16429314540244    6.35877720019111    0.00822335874535
C        -1.66343219056566    5.30902223015813   -0.64153942200724
O        -0.78532051662696    5.38139805658404   -1.47212295878460
C        -2.30944011737162    4.03305683875944   -0.22906580552998
C        -1.80547519592350    2.83890887343492   -0.73793928783466
C        -2.36546561855717    1.63069576137290   -0.36392881234252
C        -3.44550753909114    1.60243517175109    0.52992007724554
C        -4.00620945221665    0.30556599139767    0.92617760032586
C        -5.37228516784217    0.08665416760373    1.06621750667066
C        -5.84384711621850   -1.19141751775924    1.34521817914225
C        -4.94673129961630   -2.24208667314705    1.39989707747256
C        -3.58627668350301   -1.96983795907255    1.25180100784108
C        -2.55207610243530   -2.93733390547103    1.11436753529248
N        -1.35712880744232   -2.47852782519873    0.82568342822617
C        -0.31725902692729   -3.38505805665576    0.55676131407408
C        -0.15230550750205   -4.53692985278797    1.33426963643969
C         0.86131765619949   -5.42674086005685    1.04598376010541
C         1.70906542473374   -5.17290775362646   -0.02861229784618
N         2.76342554554219   -6.10119300790134   -0.33204892970814
O         2.89881027193449   -7.06752477497585    0.39423007422904
O         3.46424675672779   -5.87299923605351   -1.30015160897342
C         1.55150089173521   -4.03385504740921   -0.81301922156360
C         0.54062613752470   -3.14278991007652   -0.51846203343676
N        -3.12551133084146   -0.69568388649144    1.10262591257052
C        -3.96642642339257    2.80563824559457    1.00783518545618
C        -3.40602474509063    4.01054102616749    0.63161491998159
H        -2.35747539544396    8.36834884776688    0.04133610083387
H        -1.44823280657673    7.73327036782634   -1.37068160405062
H        -0.67875198540482    7.77991937512067    0.23255669013951
H        -0.97628676664260    2.87877215459416   -1.42776753060437
H        -2.04875881016742    0.72609269553631   -0.88244137506849
H        -6.05479803211591    0.91015512080203    0.93358950298707
H        -6.90041634452634   -1.36343102187651    1.47534348021931
H        -5.27604690459309   -3.25842167761282    1.53922677449493
H        -2.76084556082021   -3.99907675185519    1.13331865050773
H        -0.79923413952451   -4.72283051720223    2.17675917666418
H         1.01255493675972   -6.31566305957026    1.63868335723667
H         2.22256916225457   -3.86193428379284   -1.64005168222186
H         0.41088767031714   -2.25492155677797   -1.11535842450115
H        -4.79474746741985    2.79587937752529    1.69877280026672
H        -3.80585580703142    4.93922403740863    1.00536841859752
Cl        0.95564450496645    0.00886976665701    0.25263698395289
