68
 energy: -103.722517354648 gnorm: 0.000215112826 xtb: 6.4.1 (afa7bdf)
Ir       -1.00640194023207   -0.73969385418779    1.89747209287975
C        -2.71717969941388    1.81897085692128    3.34083317008157
C        -1.55064652081869    0.88414119139577    3.31950774581813
C        -1.52561449917191   -0.36695810852626    4.04804333569106
C        -2.63317010215290   -0.91914469421208    4.87872627400062
C        -0.19009857947146   -0.86645498523693    4.03727956452702
C         0.31100976373326   -1.95309041087965    4.92528217113530
C         0.60195741995785    0.02066623305337    3.22580541274423
C         2.08541424738439   -0.06722910287573    3.07996425140758
C        -0.22164344583488    1.15298317547428    2.86026369723861
C         0.35544719808088    2.41856717061534    2.30000307176693
C        -0.57390078701362    3.28726746743117    1.45159635980932
C         0.20800224133978    4.47513610588396    0.89562985159544
C         0.76717386296391    5.31889407621858    2.03845834268219
C         1.65529098412925    4.46977147764346    2.94354702884385
C         0.89406628035051    3.25857342320955    3.47544533599328
H        -3.58620524322440    1.33717167118625    3.78038446591093
H        -2.96848401129753    2.17471278066058    2.34495357700094
H        -2.47272077321277    2.68471605178607    3.95533713502327
H        -2.48183230220946   -1.97685867984546    5.07185494711577
H        -2.65085567849271   -0.39706731280626    5.83629852405493
H        -3.60188609463514   -0.78609183708831    4.40477153627341
H         0.21730584887546   -1.61207878020216    5.95740474006727
H        -0.27757305313505   -2.86300723327365    4.82979694200511
H         1.35704727205909   -2.17263860855777    4.73771310315565
H         2.40305561053541   -1.10230298014083    2.98268592506115
H         2.42471799348139    0.47871570768574    2.20475541814546
H         2.56722535744458    0.35871172260971    3.96012651589045
H         1.20476840696335    2.14446859102627    1.66582860942317
H        -1.39121021563819    3.67722288498833    2.05512366749523
H        -0.98406294117226    2.69466460961158    0.63393142664052
H        -0.44713136162377    5.08481243890936    0.27012465563171
H         1.02745520113047    4.11903045515965    0.26706044246789
H        -0.05915091297260    5.73181195774462    2.62207498526306
H         1.34028888622798    6.15740877634033    1.63805633960894
H         2.01406451095345    5.07077176722438    3.78156120498178
H         2.52698797516294    4.13218456789417    2.37832975165111
H         0.05782080799980    3.59352371914695    4.09135437415882
H         1.55349963250684    2.65523424004954    4.09976465354766
C         4.84461548066149   -4.54583499741088    2.95990927496011
O         3.50626124296123   -4.07962441606318    2.97832276095582
C         2.91126757058842   -3.74500577340691    1.81560228700959
C         3.51422449740380   -3.78824175696197    0.55813438566801
C         2.79273931227744   -3.42234186023618   -0.56562938411596
C         1.47826159303084   -3.02147625258907   -0.44883786766877
F         0.79135199105681   -2.68300525545144   -1.56232449719148
C         0.85412377148677   -2.94457755362087    0.80299753181625
N        -0.46785878638196   -2.49662859334564    0.93438325115690
C        -1.37899418058076   -3.01019804455520    0.16925770249495
C        -2.68614584522000   -2.43146955280163    0.20407567535378
C        -3.75141536759529   -2.86437965933173   -0.59194794409632
C        -4.96038533240166   -2.20575986594112   -0.52287453754047
C        -5.06360574972096   -1.12195613885499    0.34853049136003
Br       -6.69237066000799   -0.15406113348562    0.51054337400968
C        -3.97115764656574   -0.74274913937565    1.11566883481736
N        -2.81040976513138   -1.38154689341172    1.05282367117684
C         1.58606986823963   -3.31677385169694    1.92070464844692
H         5.52433376098865   -3.78253545169333    2.57323959636789
H         4.93768005578811   -5.46023320874028    2.36921809163038
H         5.08947107314713   -4.75824129336519    3.99826112974938
H         4.53524082543699   -4.10923645677032    0.43871368055976
H         3.24347376911701   -3.45452947365508   -1.54453219006897
H        -1.16887706842043   -3.83861655078324   -0.49804770627545
H        -3.61297725645638   -3.69868387652955   -1.26066416697932
H        -5.80090546237824   -2.51138837381196   -1.12530738675416
H        -4.04526822693248    0.09746497894365    1.78894237904755
H         1.11431212435676   -3.31999938515461    2.88689362644740
Cl       -0.62913792828629    0.18221329802643   -0.25891735912575
