82
 energy: -120.839965960687 gnorm: 0.000684153665 xtb: 6.4.1 (afa7bdf)
Ir        0.60049325065813    0.30408972435642    2.13625876426617
C        -1.27394595535619    2.14699477195316    4.22765508000157
C        -0.05298730729633    1.35040430841008    3.94522890815675
C         0.13066347773618   -0.02584589484754    4.29768146475095
C         1.49905829052085   -0.35995364020565    4.04948165727111
C         2.18338717467367   -1.63414402016000    4.38481869076902
C         2.19179555611308    0.83864703602012    3.59833551607265
C         1.24086751996241    1.89611786893437    3.53878159303645
C         1.50925048747103    3.29924141209753    3.23025060373235
C         2.50996580498729    3.98565623590766    3.91914553105574
C         2.74252646113542    5.32105763419837    3.66178028558236
C         2.00537163196860    6.00580760375906    2.69577742491659
C         2.26179686609638    7.42605617224695    2.41993720530947
C         2.26187381204573    7.90777040373469    1.11181799296039
C         2.50484724755646    9.24456733552396    0.85535141250620
C         2.74332351204738   10.12283379518560    1.90017579316828
C         2.74178349770827    9.65523439975020    3.20461521481725
C         2.50758246678745    8.31731146884864    3.46331702517497
C         1.01984844111758    5.30936880530123    1.99563569920949
C         0.76778767163103    3.98069282488616    2.26458077400850
C         3.65448041916909    0.93671556248136    3.36824141133389
C        -0.89089840332988   -0.86967438109301    4.98250063039996
H        -1.30631757041724    2.35006233316899    5.29980866125675
H        -2.17793205520086    1.59804419739054    3.97358444463676
H        -1.25831121268577    3.10009382670725    3.70677752413438
H         2.73914728581163   -1.49348985350346    5.31332754533169
H         2.90036915602027   -1.91394145080266    3.61583408602351
H         1.47612283289753   -2.44423080373433    4.53394033124426
H         3.08291217891491    3.47813669329987    4.67893910397619
H         3.52063625181272    5.83824974878551    4.20182538976817
H         2.09530313421383    7.22744601847566    0.28930048070080
H         2.50956303873251    9.60391117521086   -0.16338176063233
H         2.92977522490477   11.16709833120727    1.69814241076437
H         2.92296819247424   10.33702476504948    4.02272293407319
H         2.49100851126705    7.96505993088474    4.48418781321699
H         0.43628396528410    5.82201744930770    1.24616676473137
H         0.02123614244387    3.45073903037097    1.69007231518319
H         4.02771359881971    0.06015466349962    2.84375318138495
H         3.89822554679572    1.82705680596398    2.79542931502489
H         4.16621254236482    0.98729190667240    4.33025636501444
H        -1.88295570563818   -0.69921637459870    4.57385501255899
H        -0.65759952573175   -1.92653739533403    4.90567297588261
H        -0.91354721030464   -0.60282838291099    6.03917619865615
C        -4.81949186272750   -3.02589564206123   -2.11367193542286
S        -5.83716154858852   -1.53827433974582   -1.89197953457035
C        -4.76561276742066   -0.57463384287717   -0.91864514352223
N        -3.60924452071294   -1.09843448795230   -0.56435973590905
C        -2.76586766877953   -0.38902981979800    0.18129251628549
C        -1.50664949175506   -1.02812040166716    0.51179235422451
N        -1.07089561216172   -2.10142004330933    0.09705059757176
C         0.17518944124460   -2.65638132060619    0.41383967405707
C         0.02844612432087   -4.03691720990174    1.05965454862688
C        -0.66350522292829   -3.95681912644919    2.42362988749045
C        -0.71073889478386   -5.31316376954493    3.07281328743934
C        -1.85557575574471   -6.09549283716589    3.00012731029160
C        -1.88620681185707   -7.35648264481109    3.57034796574233
C        -0.76870246136369   -7.85189113190650    4.22102201238912
C         0.37839549210836   -7.07948339226154    4.29889925630342
C         0.40550073182351   -5.81957910904173    3.72784526244511
C        -3.05074881504266    0.90485859502621    0.61742317667678
C        -4.26109175816807    1.47295011989326    0.25076522975662
C        -5.14790814107885    0.73621833899773   -0.52742121868620
C        -6.38807386329321    1.28257896978231   -0.91644880372630
N        -7.39171585726728    1.74711489730917   -1.22296606567662
H        -3.91419670221599   -2.75599200554197   -2.64535790906005
H        -4.58362287056467   -3.43845796932127   -1.13993885843194
H        -5.42125311839787   -3.71545232603336   -2.69608984072811
H        -0.81598085773327   -0.37444140971045    1.26793380168763
H         0.74262025051397   -1.95389067376884    1.09476038452121
H         0.73279216110336   -2.75925696487555   -0.52071185899776
H         1.02074091618342   -4.47306031037930    1.17689547812294
H        -0.54739095744820   -4.67919985083793    0.39363861443583
H        -1.67599920812977   -3.57287583527070    2.29375820757562
H        -0.10627944751883   -3.26320600295628    3.05597906829075
H        -2.73225861917234   -5.71588442146916    2.49611920734464
H        -2.78355391313212   -7.95476958815243    3.50651606387448
H        -0.79139661639771   -8.83606726165840    4.66558107317198
H         1.25246167214666   -7.46178088956706    4.80571357731487
H         1.30624873912130   -5.22611302140906    3.79228762426240
H        -2.33805983426904    1.45522517045876    1.21293992492844
H        -4.52581777904862    2.47322454799558    0.55860620120137
Cl        1.28358120284467    0.83533896828348    0.07024382722552
