68
 energy: -111.844344778835 gnorm: 0.000330472730 xtb: 6.4.1 (afa7bdf)
Ir       -0.43051019277365   -1.18871248847312    1.46947080630087
C        -1.95205458083520    1.48611837165573    3.02002418860985
C        -0.72702023995484    0.69873021901275    2.70458433325922
C        -0.20189024212831   -0.37393520781864    3.52762824638085
C        -0.78931339091947   -0.82782240601753    4.81909590802198
C         1.11336044846596   -0.69515385528464    3.05054576188934
C         2.09498256480777   -1.56827245030455    3.74958975394115
C         1.34560007237995    0.07101111782599    1.86559058246294
C         2.63212359731230    0.20180638106979    1.12556005573396
C         0.21155176284439    0.96689220967359    1.68191384226431
C         0.17807207696307    2.07585184948536    0.68968299748600
H        -1.69004809689671    2.26291507276075    3.73984722143838
H        -2.72338042109390    0.86568696814077    3.46932505095366
H        -2.35354734126614    1.97604807734397    2.13651422363912
H        -1.87516301344658   -0.82631327624834    4.78315020937841
H        -0.44411113479967   -1.82406519601113    5.07998802370711
H        -0.47782001380289   -0.14354980355735    5.60928333326765
H         1.60608970956225   -2.40455963163973    4.24157909115804
H         2.84288751682154   -1.95450831278871    3.06373398519533
H         2.60232377712971   -0.97682046146430    4.51229407007503
H         2.45350890738246    0.28401921960989    0.05605513172365
H         3.28589046892785   -0.64391387162797    1.31440334409921
H         3.13766357027634    1.11146263348495    1.45108968063731
H        -0.81244213083715    2.51406498528706    0.61336732998396
H         0.47807052882789    1.71997191079163   -0.29352584990083
H         0.87971446549365    2.85181443689296    0.99646290315558
C         2.32493088273749  -10.67209355168232    6.34454062006800
O         3.27265073327094   -9.64116193565064    6.15979968604495
C         3.00947486636017   -8.66493683311904    5.25255916136692
C         1.86326773317901   -8.58929516628524    4.46602870283448
C         1.70073520334530   -7.54052997675396    3.57955816171255
C         2.66973170605094   -6.55183629440504    3.43966716726884
C         2.48831141337365   -5.44415990920264    2.49188876348714
C         3.55727975101646   -4.96350187366698    1.73252550313619
C         3.38180137354732   -3.91306986465307    0.84724634498322
C         2.14737284412564   -3.30441451853385    0.71311987661819
C         1.07000524892068   -3.78194036136414    1.45935548766055
N        -0.18301098784969   -3.17025753270605    1.32269361669381
C        -1.23724278690313   -3.89844457802405    1.10489784769597
C        -2.48094238457822   -3.20794266991890    0.97622134642275
C        -3.69124138751915   -3.80799557692131    0.61168363397976
C        -4.81528897732468   -3.02368360059372    0.46996201955853
C        -4.69158669110142   -1.64770643038515    0.69026730813334
C        -5.88493016328118   -0.74693878330806    0.51810376246148
F        -5.73830611480714    0.42717357791578    1.14858280849430
F        -6.11578206709905   -0.45814024210553   -0.77547266369635
F        -7.01186418260204   -1.30107514712559    0.98862961304285
C        -3.46286642541352   -1.11423986966228    1.04484314320669
N        -2.38510511636348   -1.87167411646989    1.20181841225920
C         1.23913245691360   -4.85120731046256    2.33585362991529
C         3.81995584445143   -6.63991981923987    4.22652149323791
C         3.98532109905764   -7.67216484970004    5.12150736186210
H         2.16687113454205  -11.23830668166224    5.42196064001943
H         2.75022689040415  -11.32801938267833    7.10184633677975
H         1.37033646578209  -10.27536112549185    6.70249074202466
H         1.09481059596297   -9.34265579259293    4.53333495092623
H         0.81319337607099   -7.51407317686715    2.96576668580618
H         4.52511253164625   -5.43053161071013    1.82486015537305
H         4.21462013442487   -3.56652117762520    0.25513648345260
H         1.98639419283875   -2.50026894207074    0.01271108656949
H        -1.17032586399959   -4.97186595866977    0.97830045379578
H        -3.72998233158573   -4.87062179142881    0.43590797597425
H        -5.76806486607995   -3.44952044845172    0.19572487274869
H        -3.34984890666791   -0.05258236186440    1.20943632952671
H         0.40516146310827   -5.18476392547503    2.93397277929451
H         4.58119149497864   -5.87837329201740    4.15360274422889
H         4.86715275862092   -7.73784456947415    5.73879083377017
Cl       -0.41246061028862   -1.05904402107016   -0.91121010352932
