71
 energy: -109.040756046901 gnorm: 0.000913858829 xtb: 6.4.1 (afa7bdf)
Ir       -0.98189638564380   -1.07345944609745    1.16769753509674
C        -2.07884484795622    2.48017454145485    3.14703175996577
C        -1.02070854167884    1.46908607726023    2.96296401864563
C        -1.19807687139774    0.07116835989038    3.02381971964291
C        -2.37414081511616   -0.58712813630380    3.71283159409816
C         0.12463632109651   -0.54802784079578    2.87235593288340
C         0.54003856877141   -1.75124592094983    3.67451226874228
C         1.07527988124293    0.58363740245115    2.69294165156092
C         2.53025980691924    0.41287622348046    2.51907850804729
C         0.36987330108396    1.75950484345613    2.74392844711895
C         0.92166079473019    3.10390658810594    2.54592442762033
C         0.71280100812787    4.10629686037055    3.49039963183200
C         1.25675482734253    5.35774766864541    3.27363415646889
F         1.05348361918504    6.32346617245725    4.19735344291175
C         2.00159030685204    5.66327661273307    2.14872530445278
C         2.18854731293247    4.64694495876089    1.22788988592926
F         2.90718897619403    4.91009713148624    0.11527328569600
C         1.66918146601032    3.37894949939609    1.40241799394472
H        -1.80550686435377    3.42527695089839    2.68469474571052
H        -2.22240855303257    2.65747795328116    4.21507139046668
H        -3.03346591774482    2.13759655598262    2.75237917485978
H        -2.47585646188799   -1.64187184416429    3.44699628730006
H        -2.23262873681543   -0.53767709587922    4.79323018410149
H        -3.30421270147831   -0.07468139593614    3.47580792222392
H         0.67974616973409   -1.45308208628199    4.71450284467165
H        -0.21546257074944   -2.53488724898208    3.65576064138836
H         1.48084274949494   -2.15324487499149    3.31020992765873
H         2.74090344995848   -0.00759318331310    1.53565787842782
H         3.04221594437170    1.36658557070074    2.60253821139723
H         2.92294408872456   -0.27435942272941    3.26604403487603
H         0.15707859486593    3.92029816951490    4.39472268550031
H         2.41569709274934    6.64598000585774    1.99700056984260
H         1.82433965082144    2.62285919577921    0.64981954601736
C         5.81949191622686   -3.31438018571713    2.34139967969806
C         4.62906739165523   -2.94359497100253    1.46333563609036
C         3.99918356544072   -4.17845894545699    0.82173714293809
C         2.89355825117822   -3.85050929219916   -0.18337825576803
C         1.63340646101177   -3.28567687481981    0.47223904274872
C         0.53419281788315   -3.09044517663509   -0.57830470654324
N        -0.70488819820236   -2.63550248089506   -0.00777257878118
C        -1.75943912364898   -3.37319579655838   -0.09815179084059
C        -3.03010878471021   -2.82900053500643    0.31017406330188
C        -4.16603944407944   -3.59681276365184    0.53961290346880
C        -5.33167849464073   -2.95725710535585    0.92964740574956
C        -5.35033754776116   -1.56752781955539    1.00242665277864
C        -6.53714443078494   -0.88671230930983    1.35206396410596
N        -7.50824053643033   -0.35714048903131    1.65419045240009
C        -4.17442922108495   -0.84328527018504    0.68803330263023
S        -4.27072769531033    0.88815076522536    0.60703356674615
C        -2.80486499349718    1.33769610015294   -0.36603163831762
N        -3.03275368118961   -1.47548768673173    0.42248231701494
H         6.26385261126762   -2.42546906830476    2.78309238381150
H         5.51296550932586   -3.98111061398182    3.14494894687450
H         6.58497938534504   -3.82030212067977    1.75613398637935
H         4.96125981337286   -2.26004505134480    0.67976381172775
H         3.89019277226490   -2.42330632021880    2.07266112730166
H         3.60440775943301   -4.83241632151057    1.60231704533085
H         4.78191642668743   -4.73357320570621    0.29990120148131
H         3.27491932456619   -3.13674302127689   -0.91498816708222
H         2.63562560255712   -4.76691241294047   -0.71850528820898
H         1.28325330898201   -3.98014633562273    1.23751703865945
H         1.85126927465282   -2.32383466729058    0.93421200346527
H         0.86284334505982   -2.32034445447497   -1.28332809640642
H         0.37272229249590   -4.02738663360084   -1.12055082274775
H        -1.72551416315455   -4.37031802098199   -0.52526406555584
H        -4.12701999804483   -4.66850377060364    0.43968503852921
H        -6.22672789058955   -3.51672540550601    1.15296952821701
H        -2.64634972290439    0.59749041298241   -1.14301369725994
H        -1.93153709126493    1.43327752789500    0.27269611193652
H        -3.03802649645889    2.30097026446232   -0.80995618202236
Cl        0.44729302101715    0.13228420991595   -0.15474567294942
