91
 energy: -122.852156582053 gnorm: 0.000366884790 xtb: 6.4.1 (afa7bdf)
Ir       -0.72107881065574   -0.82882153804553    1.51569768368268
C        -2.51352020968632    0.77707293496648    3.92632607679301
C        -1.25320423770263    0.10110454023944    3.51393686609391
C        -1.01369920730262   -1.30733281659911    3.67582192433602
C         0.36724662699279   -1.55127604772152    3.38674593089836
C         1.13119034232101   -2.78467792878590    3.71963258502661
C         0.94741686650856   -0.33258676958687    2.92094075088771
C        -0.05809414633330    0.71139378679717    3.02580072003811
C         0.21527885553037    2.15130260381045    2.92230067003429
C        -0.18538797113132    3.01665118562060    3.94075271162575
C         0.07833787905221    4.36968978289387    3.85795905609353
C         0.75926340559347    4.90210612842943    2.76451269394455
C         1.03370336439061    6.34394157502390    2.67712203026306
C         2.27234299650500    6.80643517967362    2.23746684331435
C         2.52977003817748    8.16280682482958    2.16111832722210
C         1.55208841734731    9.07899349970949    2.51360179804855
C         0.31518888416603    8.62988889833981    2.94674259517580
C         0.05875638575407    7.27388979053870    3.03168269611790
C         1.17294506955365    4.03340117980042    1.75598555221503
C         0.90530374447921    2.68151848738301    1.82986582948925
C         2.40473848704133   -0.13553334524150    2.67489477991416
C        -1.95947520165426   -2.26792854661657    4.31608895646940
H        -2.53476399165463    0.84845231371591    5.01496211820557
H        -3.38477675465987    0.20152839360796    3.62093784730062
H        -2.57821601224121    1.77712277803861    3.51117388254609
H         1.51618606610709   -2.68244890819617    4.73612363833799
H         1.98273604337712   -2.91340730598355    3.05647477428813
H         0.50342408694170   -3.67161268071828    3.69446112464871
H        -0.68004107295474    2.62648224087655    4.81644135996405
H        -0.22690918803141    5.02188246675808    4.66273008079010
H         3.04598534644254    6.09908160867067    1.97601334192788
H         3.49758312179830    8.50790986899825    1.82682266384302
H         1.75413953067257   10.13833295319112    2.45152479796198
H        -0.45237709092360    9.34047665603646    3.21731320537304
H        -0.91276889359642    6.93162814605618    3.35720673453236
H         1.68792453990983    4.42623047898989    0.89218635860144
H         1.19622460561226    2.03498954322913    1.01602067171733
H         2.73058830141010   -0.67909629263032    1.78950428195335
H         2.63244665538161    0.91662032595374    2.53252704511448
H         2.97110608364250   -0.50832899114528    3.52799864277919
H        -2.98651641647254   -2.05353430347030    4.03171361488990
H        -1.72735160615900   -3.29268553838858    4.03893413923848
H        -1.88514449028243   -2.18440260691047    5.40099592700149
C        -0.33266318826601   -2.96548282835408   -2.56438117486081
C         0.89360440932177   -3.67575859302548   -1.99811760933562
C         1.23726451690911   -3.28370116600904   -0.55651877805725
C         2.53782039332663   -3.96410067059658   -0.10166215186642
C         3.77243495845109   -3.48050560486689   -0.85651589124566
C         0.10350577734291   -3.65364198628665    0.42362596326823
N        -0.91763426690326   -2.64402679415324    0.57308735305247
C        -2.12748060452936   -2.93866081966628    0.26960580911089
C        -3.17232008646340   -1.96120200433947    0.43082356071873
C        -4.50301268857700   -2.32484289743095    0.34551111087249
C        -5.46701931982363   -1.35769725085663    0.63021002443018
C        -5.06387999290125   -0.07270532849077    0.86880549123273
C        -3.68689145377671    0.28205713616838    0.80992625815443
N        -3.32080013850303    1.57077166598827    0.85332628087771
C        -4.25202278397273    2.61680116152227    1.25508750141314
C        -3.48518789731574    3.89237263045178    1.59201358346266
C        -2.77932656103402    4.45116245927546    0.35260225683117
C        -2.39089023801697    3.30405279147904   -0.58438480903986
C        -2.10358948706481    2.03707017623084    0.21511630396872
N        -2.75269620917086   -0.69767223996328    0.70579970406654
H        -0.29415926634866   -1.90472625878993   -2.33139404245718
H        -0.35792037227544   -3.07676657404438   -3.64626604606109
H        -1.25668022424617   -3.37506899118366   -2.16731720844390
H         1.74768849472552   -3.41916736913521   -2.62500688133806
H         0.75593956735827   -4.75889519741019   -2.05944898304680
H         1.38403194206378   -2.20244519218310   -0.51869563359479
H         2.69364568501779   -3.75597938479296    0.95894096445922
H         2.44407356500502   -5.04653357634116   -0.21542604203949
H         3.82323849182414   -2.39404279383768   -0.84757943374990
H         3.76685681938624   -3.81429652302971   -1.89025855610488
H         4.67242968258306   -3.87122736551893   -0.38661558744521
H        -0.35278118858429   -4.59744838995085    0.10629857186291
H         0.54693455637574   -3.80303448870715    1.40960296215684
H        -2.39749077492959   -3.92613998440705   -0.09448390614941
H        -4.77632718014460   -3.33701512659521    0.10211401862599
H        -6.51437969574098   -1.61448159659382    0.63937430062350
H        -5.79782697128220    0.69159319256721    1.05100982833657
H        -4.96934343170076    2.83152023157519    0.45437169031469
H        -4.80096258468585    2.28379095308692    2.13873325106508
H        -2.74792791020131    3.67831578816461    2.36739857318420
H        -4.18260754739735    4.62586999771206    1.99633219337787
H        -3.43006720229233    5.14997619263108   -0.17405383271107
H        -1.88971230791384    5.00040855615393    0.66325790211507
H        -3.19383568064419    3.10269645038462   -1.29541043925660
H        -1.50270115332519    3.56427035494629   -1.15857323803035
H        -1.32731709582749    2.24978950943523    0.95247227124888
H        -1.74607888313295    1.25643998713308   -0.45460311226469
Cl        0.34754608401949   -0.00368379063602   -0.44235070050411
