57
 energy: -88.404288021201 gnorm: 0.000726844307 xtb: 6.4.1 (afa7bdf)
Ir       -0.44505504725096   -0.93565729948788    1.25576245705751
C        -1.56560918415093    1.65855458969817    3.20342035421650
C        -0.48440981524099    0.71249374273968    2.80591325545882
C        -0.23822017818812   -0.56394592199883    3.43689930645133
C        -1.00711085960184   -1.10671065660354    4.59266822689749
C         1.03626524103837   -1.04823804185893    2.97382751062772
C         1.77554145264722   -2.20525021976609    3.54901669896508
C         1.50796100108913   -0.15108714375509    1.97653679717846
C         2.84550147241427   -0.16533238718690    1.31926146344058
C         0.56883197455396    0.95637259256796    1.88618346459493
C         0.82547261885716    2.20365064360733    1.11317575529670
H        -1.24855756897204    2.18859571740139    4.10250828755031
H        -2.48887499228988    1.13409460651049    3.43642285049894
H        -1.75357331049415    2.39851852627574    2.43028745827433
H        -2.07053224996752   -0.91090583470720    4.48596928894831
H        -0.85285046075895   -2.17629251219802    4.70037175125905
H        -0.66558812115912   -0.62161912006290    5.50799680507798
H         1.09864285738772   -2.98930192209080    3.87706707198508
H         2.48003685975842   -2.62704554301242    2.83744767421428
H         2.33801353387085   -1.86081789459763    4.41773716678628
H         2.76254300822282    0.12149092547689    0.27343494786852
H         3.30763770228374   -1.14611890123445    1.38287064545999
H         3.49702456884052    0.55567384229871    1.81396046822114
H        -0.05255431903181    2.84131767508299    1.07786483984101
H         1.12666148631616    1.96825240370612    0.09463631178503
H         1.63882931028942    2.75609190044636    1.58445872788398
C         3.69281698987876   -7.85311413992092   -0.05986842495044
S         4.00069029012981   -6.62571061544075    1.23392579156934
O         3.94331139166797   -7.27778683656251    2.52104457155428
O         5.20374520135721   -5.89192661422029    0.91985209616201
C         2.60034708159758   -5.50023986691599    1.10620655570104
C         1.41408266487177   -5.82231253172834    1.73941948342771
C         0.32971836584645   -4.96978301351243    1.63060314507634
C         0.45465215676102   -3.78817474741668    0.89797232850866
N        -0.62306706493772   -2.89587972712675    0.79633306136111
C        -1.77342359186887   -3.30616852227892    0.36246503800527
C        -2.80673783921067   -2.31923899394854    0.26695680403351
C        -4.07538221068446   -2.55000009909619   -0.26786542274142
C        -4.96848847229536   -1.49899110393195   -0.35350511242025
C        -4.56496949887590   -0.24275000012398    0.08778713623366
C        -3.29063086781161   -0.08389321747442    0.60404931264379
N        -2.42924938527851   -1.09210215956285    0.70827556802409
C         1.65930497118428   -3.46871897869772    0.27025860592158
C         2.73072876229106   -4.33717049052783    0.36859811997531
H         4.52164046225257   -8.55048917922552   -0.05462607699244
H         2.76699223236644   -8.36223221439957    0.17454462674959
H         3.63656625486412   -7.33488357587158   -1.00845562384856
H         1.36015377932888   -6.72755318834523    2.32242932107572
H        -0.59948963942064   -5.19895939301925    2.12882301913999
H        -1.93192765630108   -4.32824662435628    0.03962061395953
H        -4.33301947115661   -3.53771743606044   -0.61411819538206
H        -5.95591526602773   -1.64731861822854   -0.76115928099694
H        -5.22798593759586    0.60502572819505    0.03221563157174
H        -2.95016468762891    0.88195786022264    0.94512891604991
H         1.72706317536882   -2.55850465743874   -0.30547445870002
H         3.67716284918431   -4.12366503362327   -0.10207780726045
Cl       -0.05899802032196   -0.54074377661169   -1.06929292928093
