62
 energy: -104.873300469386 gnorm: 0.000160209931 xtb: 6.4.1 (afa7bdf)
Ir       -0.59279407379966   -0.98343819066332    1.42713629150056
C        -2.13065669433364    0.81131144634730    3.88442709723540
C        -0.87537914684150    0.24166228507292    3.32150914435361
C        -0.33525460160118   -1.04772795344265    3.64231693572443
C        -0.90325032444035   -1.98830308017229    4.64912673467474
C         0.98081851308671   -1.13729619096601    3.05770804406629
C         1.98414417415530   -2.18957049609475    3.37990732950134
C         1.20221251427486    0.03279423031105    2.28525096485351
C         2.48272028941884    0.44151377194106    1.64483768742920
C         0.03452211789146    0.89350785863327    2.43675500052111
C        -0.01063058463683    2.31323219823406    2.04543730765838
C        -0.11904889272620    3.28206542756797    3.04203315949586
C        -0.11205300614508    4.61684370420815    2.68435932107040
F        -0.21152906629058    5.54752076595612    3.65662789845489
C        -0.00606042931067    5.03643758963929    1.37049910414595
C         0.09306367257773    4.04952796394374    0.40518779717469
F         0.19220439007124    4.42160171238443   -0.88771270205182
C         0.09364399146440    2.70247835459491    0.71304225009012
H        -2.40535468750884    1.73111052617583    3.37586827626350
H        -1.97398461956089    1.03386484258724    4.94030176329683
H        -2.95283308481078    0.10206514922797    3.81939376574002
H        -0.58921264321084   -3.00975262844075    4.45393981892976
H        -0.54468696444927   -1.70938301522899    5.64055021376520
H        -1.98843419842070   -1.94381807985148    4.65781769008070
H         2.48163973757786   -1.92039275927047    4.31238567272554
H         1.51393148944282   -3.15944339366321    3.51652439872743
H         2.73924123001931   -2.27168470303172    2.60423842856212
H         3.07995436682354   -0.42476657896120    1.37491740545053
H         2.30250126395680    1.03741166455161    0.75450071901420
H         3.05534958704038    1.04786982757706    2.34772009350571
H        -0.18450338816621    3.01189483559447    4.08325305238855
H         0.00039417306929    6.08194194227037    1.11115588637845
H         0.15136107546160    1.96984692670791   -0.07687154270132
C        -7.33241039782710   -0.82656753428353   -0.75132990175641
O        -6.32643345255094   -1.83001271643049   -0.70187970870922
C        -5.12840869729970   -1.53915659732087   -0.21810782521009
C        -4.71884110845542   -0.28664452181689    0.26817986741698
C        -3.43917199128943   -0.13526221000887    0.75894861275946
N        -2.55569682165575   -1.12782096810861    0.81005089260848
C        -2.92027488762452   -2.33990783511583    0.31443587747510
C        -1.85895325870206   -3.30741009204041    0.33655947515310
N        -0.71722621198268   -2.90709681691881    0.79456438489760
C         0.37901495349551   -3.78078492708402    0.81813621001389
C         1.60429996634073   -3.34836958385605    0.31012068557225
C         2.69035363322643   -4.20100514368125    0.30212589052468
C         2.55922382306830   -5.48004572338487    0.82581083287550
Br        4.07497812669940   -6.65883757913328    0.83104861035356
C         1.35052203807537   -5.91720489402163    1.34915074069185
C         0.25814062559883   -5.07105806149728    1.33622590789713
C        -4.18446106343438   -2.57755475003833   -0.19398006583140
H        -7.56575965122801   -0.45725262497230    0.24926161701622
H        -7.03037706938461    0.00007911420932   -1.39732470401846
H        -8.20712298726271   -1.31673888988107   -1.17261157429264
H        -5.37989634252198    0.56345834576900    0.26558592575270
H        -3.10952558797339    0.82521904856073    1.12611698155319
H        -1.99938149763524   -4.30418899772754   -0.06494567639628
H         1.67996888885321   -2.35701081525708   -0.11034992862706
H         3.63319176084210   -3.87787888333356   -0.10867815689870
H         1.26488988762281   -6.91033358048658    1.75964662365169
H        -0.68128274750586   -5.39987386298005    1.75288075108193
H        -4.45454627404528   -3.54646852437306   -0.57994010995735
Cl       -0.15483283569864   -0.43787832845622   -0.85661424361996
