67
 energy: -97.052516205897 gnorm: 0.000885630587 xtb: 6.4.1 (afa7bdf)
Ir       -0.84644682381002   -0.85656748638932    1.38554372389442
C        -2.24949789110543    1.15612034341109    3.83994355334535
C        -1.08771737316604    0.39709196561804    3.29502101503571
C        -0.82055860050349   -0.99042161271589    3.60104746447021
C        -1.63585928095863   -1.82582885291428    4.53006403113126
C         0.51211333543004   -1.29486352611575    3.15046356680060
C         1.28755884591973   -2.51386716280406    3.51245481823013
C         0.99580459101052   -0.16454993425482    2.43702225422134
C         2.37197452332840    0.03814721466256    1.90105682278916
C         0.00412133312817    0.89534693567025    2.54393769077741
C         0.26127752440853    2.30398053063297    2.12182385059295
H        -2.11740609579176    1.26649443971875    4.91677814964284
H        -3.18457030179386    0.62688822433628    3.67120655557970
H        -2.32544559040602    2.14521873434601    3.39996918027949
H        -2.69665375275983   -1.62213374827322    4.41124190539094
H        -1.45864863918380   -2.88489560638414    4.36477141472638
H        -1.35965242753811   -1.59347149540948    5.55943661800586
H         0.64266069465756   -3.38222157588125    3.61667968736243
H         2.05095015599843   -2.73441072472693    2.77171232559929
H         1.77983709494048   -2.33925152137333    4.47011445524098
H         2.33683348049293    0.54930365120695    0.94152451799826
H         2.89048317003775   -0.90785138101180    1.77765539535454
H         2.94129967770818    0.65911426129020    2.59337521755424
H        -0.59630361547433    2.94239274086002    2.31366385510168
H         0.50526998709945    2.34866374794211    1.06131967204773
H         1.11456965456249    2.69493812193992    2.67589581245987
C        -7.16206348183176    5.48399873099939   -0.09029032358313
C        -5.93120590842962    4.62680260258605    0.15989618546629
O        -6.30872206289130    3.26571021134866   -0.02148158502848
C        -5.41123586056176    2.28572580793624    0.15072267607469
C        -4.06042433719655    2.48752148493334    0.51822699031360
C        -3.21681434484614    1.42603785827637    0.69148183567195
C        -3.65229808362756    0.10303560229016    0.49153792771127
N        -2.80185466453015   -0.93587612347271    0.65340622884492
C        -3.19279568543604   -2.16583817680647    0.28294334522049
C        -2.15172985751024   -3.14205832887313    0.30302273646003
N        -0.97601623248628   -2.73939276828435    0.67659368425008
C         0.11241242767897   -3.61506370789494    0.66705576021481
C         1.34497613113664   -3.16513159286183    0.19211780066220
C         2.42760872647399   -4.02090651984091    0.16437654100237
C         2.32278727228284   -5.32969927900804    0.62904903761763
C         3.50519590020945   -6.24285081485386    0.63991299049237
C         1.09051448366131   -5.76449815676955    1.11295145102602
C        -0.00670710560201   -4.92868399940755    1.12651652037372
C        -4.50882912082662   -2.44327859012749   -0.14742570995091
C        -5.41590349836432   -1.42876265835414   -0.21712271301706
C        -5.00232901057967   -0.10528465368497    0.07063655161241
C        -5.85590503016800    0.99093218583426   -0.06891444592281
H        -7.52367781503194    5.33376205599479   -1.10378827537194
H        -7.95282354139708    5.21432457444176    0.60438442096497
H        -6.91065038358955    6.53169938368655    0.04539609449489
H        -5.56730460956084    4.77849690746547    1.18356926398753
H        -5.13637417108422    4.88861260580158   -0.54971729876028
H        -3.68170985979839    3.48777114142110    0.65187135071780
H        -2.17831391188753    1.59030073665867    0.92835945732404
H        -2.32361104021673   -4.14971665354954   -0.05619233263604
H         1.42407690135017   -2.15715169810450   -0.18378878901488
H         3.37076810025966   -3.66869219633283   -0.22495291710493
H         3.93905729913435   -6.27291957446251    1.63964863235629
H         3.21301790539454   -7.25666937159897    0.37599037186038
H         4.27068278729737   -5.90138646854131   -0.05166512054667
H         0.99245849679074   -6.77391072843308    1.48379702404065
H        -0.94946435766695   -5.27695770993436    1.52105946736022
H        -4.76891144011787   -3.45643709811963   -0.40602413871103
H        -6.43630881608495   -1.60741949360352   -0.51790497256587
H        -6.87753515844381    0.83877594503895   -0.37786771413512
Cl       -0.23330571812669   -0.02250375517197   -0.77134156340189
