82
 energy: -126.197805573237 gnorm: 0.000351516180 xtb: 6.4.1 (afa7bdf)
Ir        0.77959421242735   -0.30810128619386    1.56883395295454
C        -0.46280189359121    1.16592386163282    4.31533291924159
C         0.72889172719922    0.83620157562296    3.48450671142336
C         1.58179397888798   -0.29744305601680    3.65929541830425
C         2.68161131216326   -0.17368967488185    2.73680683836859
C         3.92404318499954   -0.99812720746316    2.75469023547792
C         2.52547317157833    1.06006426488235    2.02297034257721
C         1.29456053872537    1.66546135903541    2.44589307971789
C         0.85910320739968    3.01587444384133    2.06442086842870
C         0.63926459778418    3.98836176983593    3.03850175804899
C         0.30794834720287    5.27811760522631    2.67426818578109
C         0.18756437956359    5.63681306744210    1.33219411544781
C        -0.12927469325389    7.02021262862034    0.94720850727850
C         0.51849408703615    7.61668107225305   -0.13313447676201
C         0.23651668000045    8.92225437109911   -0.49046282039999
C        -0.70293572410949    9.65152496121110    0.22013143010305
C        -1.35604228454260    9.06718681763862    1.29323706155969
C        -1.06958931857807    7.76424671058246    1.65707087306969
C         0.39042367198004    4.65543411605464    0.36264095352915
C         0.72129788661406    3.36413972270511    0.72096421608486
C         3.53733601828345    1.66144964712320    1.11504450224449
C         1.46160877339427   -1.33375721167215    4.72224392696132
H        -0.13011004856852    1.55477014069814    5.27840682384333
H        -1.06795234257706    0.28319665976695    4.50871584798471
H        -1.07629720087693    1.92236732498389    3.83331683277937
H         4.62279725750952   -0.56660359868225    3.47269356805686
H         4.39991077503015   -1.00569683682593    1.77857076187272
H         3.71680526276053   -2.02092634169865    3.05560207304852
H         0.76450566577195    3.74257167733347    4.08138638444355
H         0.17094139140860    6.02768860966040    3.43895170224685
H         1.26498616250137    7.06189153585535   -0.68259317609195
H         0.75254877312756    9.37366670147324   -1.32559895868964
H        -0.92478660958285   10.67066111852942   -0.06069807177059
H        -2.09205838083552    9.63073003700551    1.84814540658276
H        -1.59435526678323    7.31442772391308    2.48703753088212
H         0.27708020862630    4.90537406369212   -0.68150336712327
H         0.86638677035906    2.61255283118126   -0.04148133077798
H         3.59671531067429    1.11077482031618    0.17705829256950
H         3.27923355739709    2.69264426509137    0.88810916797998
H         4.51729444003095    1.62743166135958    1.58854578452550
H         0.44077289872809   -1.40909240136224    5.08531212964793
H         1.78736469497394   -2.30642448732563    4.35945331033072
H         2.10247170684090   -1.05750823178040    5.55999475365499
C         1.75753958755002  -10.79622492069728    5.97272017686623
O         1.31549482795027   -9.47745069405133    6.21624328990778
C         1.53482897946193   -8.52705858533123    5.26988271113999
C         1.09422401853771   -7.23850547994672    5.58463380793180
C         1.26785806714545   -6.20241375429090    4.69541906884505
C         1.89552573662648   -6.41004792930738    3.46583972013880
C         2.10677208170835   -5.30113418598942    2.52525778489604
C         3.29589979320627   -5.19823428609468    1.80055069943010
C         3.50740629484054   -4.14158125725829    0.93173851282981
C         2.54843912310633   -3.15840136905746    0.77625356418358
C         1.34903882012628   -3.26018752309207    1.47997540018393
N         0.37339877089028   -2.26910929131208    1.30053372631666
C        -0.83870259864225   -2.58897990910032    0.97642720362178
C        -1.76461391168697   -1.51084488850910    0.79228406281780
C        -3.08088361294607   -1.65806528697996    0.34615131817570
C        -3.86119926805197   -0.53570083527870    0.16211031667227
C        -3.29316492556005    0.71142017251832    0.42150598278693
Br       -4.30140510810076    2.30626717415573    0.18434315721593
C        -1.98068801608183    0.79506565129799    0.86738961063671
N        -1.24027525092000   -0.28771775468909    1.05704676189056
C         1.12758717054116   -4.32773516840961    2.34591635096698
C         2.32999892244566   -7.69587301232706    3.15940833453535
C         2.15120922611571   -8.74600072115369    4.04095792134906
H         1.26057926160362  -11.22934997381880    5.09947225185795
H         2.84234906290365  -10.83401903278508    5.83549620596222
H         1.48587169636348  -11.36372169392244    6.86081724324383
H         0.62127568101596   -7.08008409305575    6.54075584612362
H         0.93608832773611   -5.21355337754601    4.97181755220048
H         4.06592118927550   -5.94107397219109    1.93764514921606
H         4.43108574151690   -4.07803732011744    0.37809261784883
H         2.69171299735982   -2.33242259628737    0.09799790335922
H        -1.13213113833278   -3.61848926997290    0.80826396802611
H        -3.47089582207771   -2.64241588578113    0.14240677293893
H        -4.88107838665498   -0.61287998117003   -0.18007144553124
H        -1.52445877782263    1.75492327831094    1.06638069903552
H         0.19615328370702   -4.39082546404852    2.88731221641374
H         2.79649571084827   -7.89136942660176    2.20558794557034
H         2.49631596115338   -9.72849811565731    3.76115541912891
Cl        1.14699059543209   -0.15958705223195   -0.77713489420650
