84
 energy: -120.423356929223 gnorm: 0.000180976464 xtb: 6.4.1 (afa7bdf)
Ir       -1.06371202163416   -1.64815443436853    0.94861712075438
C        -1.27797360581121    1.10417235061040    3.11898504680139
C        -0.50246834265543    0.00474180058895    2.47313899797611
C        -0.43347228401742   -1.32178567085423    3.05549820001775
C        -1.09691831861197   -1.71616816760418    4.33207131496763
C         0.62715245909715   -2.03509762540202    2.41024315679683
C         1.23822133723848   -3.30223978189387    2.89571056382558
C         1.08269930242716   -1.23401784022356    1.32197014646130
C         2.25648786187995   -1.53841130573417    0.45227521271494
C         0.41833556273286    0.06362076981428    1.39839019069252
C         0.93652726831454    1.26715638880666    0.65727901244600
C        -0.10299525383029    2.09450747200317   -0.10476128572620
C         0.58943920056771    3.22750221720990   -0.85844697914768
C         1.35913567292176    4.12448119070743    0.10793724181217
C         2.38389866795534    3.30801851411797    0.89068534716169
C         1.70358763233127    2.16746560728546    1.64216544574989
H        -2.30403538311057    0.80019979569487    3.31533151960656
H        -1.29176346520144    2.00615572469981    2.51880283675004
H        -0.81179592165312    1.33301417374291    4.07824976176966
H        -1.17364852436041   -2.79642935059955    4.41853823269140
H        -0.50402242799941   -1.35049146719500    5.17152916531011
H        -2.09074342231777   -1.28383515652121    4.40834917033431
H         0.50496983990825   -3.94354355338666    3.37659421068730
H         1.71514903986888   -3.85391337438626    2.09081873926521
H         2.00146869090784   -3.05106419168732    3.63339777421828
H         2.47703812632162   -2.60195258007693    0.45216018168715
H         2.07086052627021   -1.22682759112076   -0.57302896606933
H         3.13301902744504   -1.00436551048846    0.82010286575926
H         1.65242333145285    0.90664432753845   -0.08724793175274
H        -0.82915998710770    2.53279836013631    0.58043254467473
H        -0.62868254255214    1.45063742619180   -0.81213668861223
H        -0.15439378303937    3.81557312933439   -1.39965333910254
H         1.27957700341619    2.80992456467844   -1.59502253176312
H         0.66121206242810    4.59670873505792    0.80381163958899
H         1.86305461131095    4.91962906331936   -0.44512086166743
H         2.90861850795326    3.95086419383661    1.60053657195052
H         3.12583858117951    2.90121975322844    0.19966624342372
H         1.01487808822315    2.58182242212799    2.37860216686948
H         2.45109727912884    1.57713481168002    2.17550655045736
C         5.12638565263144   -4.82489436326052   -5.82445400472208
O         5.39185038904829   -5.26295098954293   -4.50843625588975
C         4.38262533706335   -5.24956272548119   -3.59744583716821
C         3.08489993845650   -4.81107771047883   -3.84485243810791
C         2.13493209903336   -4.85704179414641   -2.84072063006897
C         2.44292120977682   -5.34840290465015   -1.57606801344670
C         1.40828344243560   -5.44874922531018   -0.53776788702721
C         1.35513238103707   -6.56339431207653    0.30255292096275
C         0.35799700414602   -6.68633467190356    1.25385363587803
C        -0.61004455129632   -5.70780860292412    1.38490295207715
C        -0.55838999916668   -4.58189772466179    0.56184270719224
N        -1.52897941602158   -3.57604898917192    0.67768159219551
C        -2.78197632756733   -3.90415854144834    0.69533428034724
C        -3.73442972550369   -2.84151199086431    0.77450468960845
C        -5.12639017781506   -3.06131148465687    0.74017543494672
C        -5.96994654938327   -1.98804214038607    0.76050628036396
C        -5.42780707945470   -0.68478711699718    0.75144088237122
C        -6.23557675795039    0.46816466151802    0.70316009597512
C        -5.67267276375639    1.71442768412299    0.63873694462956
C        -4.27615825504077    1.85476261985833    0.60923100584973
C        -3.46321573423314    0.75598889479495    0.67872170077942
C        -4.00878013698617   -0.53697847178385    0.76764218143791
N        -3.19268693715182   -1.61674800873376    0.84192965745518
C         0.45043010477149   -4.45039063376707   -0.38740082776376
C         3.74935228045097   -5.77702190055845   -1.33354735940360
C         4.70543609416797   -5.72208400122780   -2.32208100806586
H         6.06311196293336   -4.94346625460684   -6.36588244949072
H         4.82685177545707   -3.77278404746845   -5.84243167103212
H         4.35275824344406   -5.43600842731809   -6.29913429442196
H         2.80145430215618   -4.43984063007473   -4.81677292347279
H         1.12937120689453   -4.53042931861659   -3.05936106555184
H         2.08892376451249   -7.34612947521129    0.19141916882184
H         0.33006603152277   -7.55436849873026    1.89409026404287
H        -1.38392968291559   -5.79417016865525    2.13185212626531
H        -3.10079301843215   -4.93422550715318    0.58669852769488
H        -5.49482219906168   -4.07314697046359    0.70173652862989
H        -7.04128493644053   -2.11707451774452    0.76049539153114
H        -7.30778550774777    0.34552489990499    0.70091315070527
H        -6.29705677081263    2.59289808035459    0.59396562803573
H        -3.84585015522154    2.84027554008287    0.52320537816785
H        -2.39162926643614    0.84546903152883    0.61854962968792
H         0.46232119577370   -3.57505799402108   -1.01799845133543
H         4.02439575202574   -6.13953880007084   -0.35450006481582
H         5.71692928025374   -6.04856291298716   -2.13843161907532
Cl       -1.11715989955845   -1.32171977722181   -1.41009954415613
