59
 energy: -95.206439716255 gnorm: 0.000766271606 xtb: 6.4.1 (afa7bdf)
Ir       -0.74549355901588   -1.31844152199823    1.25941224326413
C        -1.98717322245136    1.21404443750295    3.22238787187782
C        -0.87614774182606    0.29619713933361    2.84389222569008
C        -0.62401526233527   -0.98937727416911    3.46034777036229
C        -1.42092734965602   -1.57293787914828    4.57519665457947
C         0.66402973973215   -1.44543350146683    3.02091909399883
C         1.40464120233629   -2.61063188908788    3.57659078773821
C         1.15314424231988   -0.51272565740719    2.05340167428284
C         2.52013013911936   -0.47736048333224    1.46080439234490
C         0.20673460853961    0.58893594239208    1.97612685054755
C         0.46446182219640    1.85937961687942    1.24504454912258
H        -1.68178944547469    1.78512440467178    4.10034751193068
H        -2.88765316567433    0.66413244183961    3.48335847199622
H        -2.21056851184113    1.92209305871460    2.42849340188742
H        -2.48370700574839   -1.39070285778166    4.44088687104498
H        -1.25416147212606   -2.64252864978172    4.66161632349388
H        -1.11596778669822   -1.10572282905455    5.51236110156031
H         0.73073961335140   -3.41745733043820    3.85133733743363
H         2.13690609042178   -2.98920651978600    2.86955400437353
H         1.93199871075895   -2.29047609329832    4.47579244388245
H         2.48534419346401   -0.10981773037107    0.43832301500880
H         2.98137065533066   -1.45999976364527    1.47250150371013
H         3.14189217504091    0.20401007364713    2.04229639161711
H        -0.41090494751277    2.50114528935522    1.23697602068608
H         0.75845031169115    1.65740564214513    0.21713552854521
H         1.28318760913590    2.39048458891186    1.73053832728558
C         5.07076444128023   -6.18719835989484    0.26342475425870
C         3.76365362727282   -6.59580287798913    0.85012646120809
C         3.59685046615206   -7.79628130646921    1.45395162864263
C         2.34115258330964   -8.22562682845852    2.02841264724484
O         2.14285645602660   -9.28980959903991    2.57218790619332
O         1.29162634046596   -7.34948135213066    1.94993918773457
C         1.41661182879070   -6.14479421627828    1.35046441542906
C         0.27798361113939   -5.34303147424561    1.31557292345515
C         0.33980703222496   -4.08838936488209    0.72485814285188
N        -0.78883878745417   -3.26014882096312    0.68302589194623
C        -1.91665381601350   -3.72240895072773    0.23764368244046
C        -3.01883243750527   -2.81356929571921    0.19901279044234
C        -4.27082499709940   -3.10773645326793   -0.35127807380703
C        -5.24004521005615   -2.12822283862873   -0.39110884135628
C        -4.92000352679825   -0.86832082870292    0.11580848927040
Br       -6.19314712406421    0.54490844237692    0.09057985707223
C        -3.66192853440779   -0.63796972214589    0.65480479021602
N        -2.73678160277493   -1.58622551870718    0.70703072462852
C         1.53865773881707   -3.63657445639534    0.15842630056814
C         2.65402152377982   -4.43890021351942    0.18058750473842
C         2.62540085967643   -5.70614521653811    0.78162753617508
H         5.82086644202268   -6.95244725721708    0.43726441601502
H         5.41280933072325   -5.25344958045120    0.70482866391944
H         4.96772235772525   -6.03761790487355   -0.81017838164391
H         4.40313577027152   -8.50759044066284    1.53702715188777
H        -0.62782723298364   -5.70720278891536    1.77296441608158
H        -2.00908922269454   -4.73419905878061   -0.13893124925730
H        -4.46230727998624   -4.09209703411244   -0.74750800657029
H        -6.21603467646286   -2.32024223213990   -0.80814347721881
H        -3.40432400423101    0.33389639774320    1.04790315970750
H         1.55473571453475   -2.67288764800257   -0.32623325893650
H         3.56640729715486   -4.09044593586282   -0.27482292342381
Cl       -0.42456561188710   -0.75366791904432   -1.03490359817192
