74
 energy: -115.022307010069 gnorm: 0.000439050674 xtb: 6.4.1 (afa7bdf)
Ir        0.20290656623879   -0.57406937302492    1.47689993276712
C        -1.34999165139471    0.75617012966558    4.13178023295657
C        -0.07018008377096    0.35336008252890    3.48303151915149
C         0.59391595932384   -0.89975097719333    3.65738619130748
C         1.85584895854787   -0.83834736219419    2.96456654975973
C         2.96087567917641   -1.83409660286678    3.07884823845147
C         1.99046531583078    0.46960539809335    2.40246133561292
C         0.77813954047545    1.19520401827069    2.66976491834649
C         0.57104769251213    2.61698650706245    2.36357815753369
C         0.22172433511572    3.52100340235364    3.36545110122073
C         0.06717897870440    4.86179623979028    3.07285138897598
C         0.25583626891182    5.33999330483339    1.77686160248002
C         0.10442044159242    6.77018677317873    1.47050884293722
C         1.00545607218484    7.40923682106986    0.62079852521913
C         0.87071478624923    8.75567349937468    0.33669409543680
C        -0.16996292877224    9.48379991898219    0.89032606963158
C        -1.07375496183442    8.85735603084513    1.73315250038823
C        -0.93626066006306    7.51262624666692    2.02483354726292
C         0.60167133457403    4.43121333337930    0.77736598893752
C         0.75813751183801    3.09042940017705    1.06412076048501
C         3.21878649820455    1.01407091787987    1.76612986351524
C         0.14733937516020   -2.01030646303429    4.54263805122103
H        -1.15798198788056    1.01237791977563    5.17437138229876
H        -2.07006906249032   -0.05862663769506    4.12085323080026
H        -1.78237474388125    1.62241516990972    3.63840861777177
H         3.56466726936297   -1.59522338750613    3.95535963894928
H         3.60498779037447   -1.80269139950194    2.20493191674155
H         2.57841351714992   -2.84385422689679    3.19839887982828
H         0.10466102429880    3.17893134825219    4.38157108704824
H        -0.17664687632974    5.55428050066461    3.86443002629776
H         1.82993091609319    6.85321209112576    0.19868076742770
H         1.58071943298992    9.24042478861043   -0.31768372993981
H        -0.27561281772916   10.53507340134103    0.66569667162180
H        -1.88916136272710    9.42062495804205    2.16374950505115
H        -1.65367138068660    7.02957438545416    2.67210222415006
H         0.73400999914723    4.77799856010342   -0.23627895379557
H         1.00993386854070    2.39586447054556    0.27615860876034
H         3.33695045137700    0.62926334938241    0.75311669596740
H         3.17034921221404    2.09888008203528    1.71286869457354
H         4.09322536559063    0.71642353653085    2.34186467000260
H        -0.93325518689701   -2.01874156972303    4.65290205187880
H         0.47729342564402   -2.97450865394766    4.16333588560732
H         0.58733141060038   -1.87136939165284    5.53091858517775
C         2.48983304991595   -8.29044862803970    0.16767333625384
S         2.77549199983860   -7.36946585116230    1.69954624638014
O         2.22034602991140   -8.10972980592321    2.80837701804975
O         4.17160042614566   -7.01038232767511    1.78038852992662
C         1.81042503345418   -5.86535278604420    1.47788223090411
C         0.49520362818628   -5.83250704502017    1.90334510262466
C        -0.25968129288556   -4.69074619416262    1.69896076847503
C         0.32171386881413   -3.58479844197664    1.07623555583766
N        -0.42253259205941   -2.41493025074471    0.86160180071109
C        -1.54568251366064   -2.46687984015861    0.22049220681519
C        -2.23900120139204   -1.22606787339348    0.02584183150270
C        -3.42668215380531   -1.08995422970303   -0.69373187665922
C        -3.98090903198136    0.16861990693870   -0.83860129469873
C        -3.32871901548415    1.25647067088618   -0.26822903440747
C        -2.15107149902974    1.04996853573060    0.43061106167582
N        -1.61865918773496   -0.15817174953961    0.58610695598102
C         1.65404114188247   -3.62426798401631    0.66381242114422
C         2.39525099679446   -4.77469026299712    0.85949154624340
H         3.07148314376221   -9.20275856510906    0.21968972388482
H         1.43360062097168   -8.51605421654932    0.10238701886403
H         2.82055533860686   -7.67529840241124   -0.65901995348793
H         0.08567054865301   -6.69732249777198    2.40022351514582
H        -1.28326846864186   -4.64311584412883    2.03676516909221
H        -1.92712827367928   -3.39440146392704   -0.19074091509512
H        -3.88858752887482   -1.96119041988440   -1.12928827237168
H        -4.89876247590081    0.30458424364647   -1.38851564712147
H        -3.72484658455964    2.25423076597142   -0.36165519756902
H        -1.61686612163233    1.87880085699615    0.87374484659578
H         2.07750882547526   -2.76251902432405    0.17169069824482
H         3.42774343583202   -4.83781891265582    0.55593125732406
Cl        1.10032755954616   -0.31643190355312   -0.70925451999064
