77
 energy: -113.262638353618 gnorm: 0.000547843088 xtb: 6.4.1 (afa7bdf)
Ir       -0.61930107448518   -0.87879302744099    1.46481334971172
C        -2.06350995456416    0.85125089889117    4.06001279849776
C        -0.85572128037659    0.20986773260056    3.46858863861501
C        -0.48319159562366   -1.16609523350196    3.66364842201362
C         0.84426412957988   -1.34348944425967    3.13513860011706
C         1.73157224677074   -2.51121636366355    3.39296962200184
C         1.22838535487019   -0.13299128835189    2.49647448724970
C         0.17029547943263    0.84374197395753    2.71224617963336
C         0.31402100209373    2.29024214587922    2.48282678179514
C         0.23418568790011    3.16136107436694    3.56873105506534
C         0.43115550254841    4.51636098509716    3.39490373395799
C         0.71254230387170    5.04336972783286    2.13536042420606
C         0.94769795710006    6.48428265368659    1.95840599230202
C         1.96772932080929    6.93497319706187    1.12263994179989
C         2.20063337261355    8.28855017757294    0.96299033422066
C         1.41468031253200    9.21443735773381    1.62989132892060
C         0.39543688748526    8.77759211482515    2.46033966787081
C         0.16538364693612    7.42411184910101    2.62654134180166
C         0.77687220786502    4.17003951872737    1.05077381806323
C         0.58164827142005    2.81352922091571    1.21939939674575
C         2.58649884068284    0.17154858152113    1.96498572420641
C        -1.20333640131809   -2.12995672820742    4.54559786295663
H        -1.92597254751031    0.93373781022593    5.13863585643775
H        -2.95455384012890    0.25140064827403    3.88823186628976
H        -2.22074985997987    1.84513384707445    3.65165304207089
H         2.22370948722011   -2.36368288895389    4.35497822245831
H         2.49836263167779   -2.59973821735904    2.62938014156422
H         1.17169303951772   -3.44115774998300    3.43913465026311
H         0.04876931020019    2.76996518098216    4.55717267185105
H         0.39388190597258    5.17353604756041    4.25082197244311
H         2.59581915961666    6.21925201415462    0.61218608676347
H         2.99964851710922    8.62399284837000    0.31758662666403
H         1.59636426616545   10.27167762132152    1.50295474571490
H        -0.22229563260609    9.49612225834162    2.97976439144302
H        -0.64007105319545    7.09340333521376    3.26602653337964
H         0.96726834845010    4.56025696198751    0.06206563830787
H         0.61446902676091    2.15537181685445    0.36369200384858
H         2.96217778588633   -0.64404978891212    1.35190295955725
H         2.57488212518048    1.08110402588747    1.37163071309743
H         3.27211180548178    0.31048209095041    2.80165121277820
H        -2.27874467522068   -1.98421516749872    4.48868737027844
H        -0.96846859549110   -3.15696509317476    4.27909738523748
H        -0.89482545287830   -1.96998131407624    5.57941278189672
C         3.44557562385388   -6.48377040292802    0.55005489238316
C         2.32034146461368   -5.50438485199838    0.61880238405491
C         2.48170391262493   -4.20085549365116    0.15339071036204
C         1.44737478769330   -3.28975664143608    0.20891028286945
C         0.20451920671540   -3.67685749398099    0.71252762999025
N        -0.84062392846459   -2.75046441613111    0.74313163248123
C        -2.03313443990017   -3.09462781483921    0.37142553100030
C        -3.03574921796517   -2.07415895316418    0.37899080883873
C        -4.36261643330585   -2.29836757236575   -0.03929897454672
C        -5.23956670163109   -1.25180732911100   -0.05472429367850
C        -4.78191180392154    0.04088941137166    0.28098401189021
C        -5.61746363210331    1.17336441340134    0.22100924534309
C        -5.12493590930124    2.42064110019121    0.49620930509374
C        -3.77095359441114    2.58345655643909    0.82908060725071
C        -2.93775032222631    1.50142960983724    0.92322979074451
C        -3.41904858662099    0.20262724312577    0.67256548750670
N        -2.59631444645420   -0.87049396065369    0.77550406199097
C         0.02858586826559   -4.98275149460039    1.17569217678120
C         1.08035235869592   -5.87497965882575    1.13437574667641
H         4.40468238540276   -5.98483845114715    0.66401980202620
H         3.44186743666780   -6.97772793732280   -0.42220082662249
H         3.34642450822960   -7.24950252215145    1.31490604461275
H         3.43334534604300   -3.89862066407223   -0.25690571528071
H         1.56815245171972   -2.28630806806515   -0.16976094167679
H        -2.25167151494074   -4.08871166621352   -0.00049278383520
H        -4.65839854969975   -3.29240146876029   -0.33132266834049
H        -6.27039843112557   -1.38977180765276   -0.34248529445454
H        -6.64953488639486    1.03641688537066   -0.06294119950798
H        -5.76786513289280    3.28514440258502    0.44254986852695
H        -3.38299030019524    3.57394499275004    1.00808494291953
H        -1.89087197020776    1.63380918413057    1.14330641658856
H        -0.91946608701561   -5.27920899019897    1.59847947983827
H         0.93905334191366   -6.87773527343947    1.50842255512193
Cl       -0.05418977402312   -0.15446527807604   -0.74102809104914
