67
 energy: -103.527661668145 gnorm: 0.000649092398 xtb: 6.4.1 (afa7bdf)
Ir       -0.49319618711256   -0.72171722314958    2.17139086611142
C        -2.39643663408469    0.97921325411488    4.48870995376846
C        -1.09072170915493    0.37142324086262    4.11121948710069
C        -0.71447400210775   -0.98635945467078    4.38606059641906
C        -1.53893947749780   -1.95553194669033    5.16430363303740
C         0.68553275314255   -1.12992842718444    4.07319385541389
C         1.56635749277826   -2.24707041273954    4.51772268617140
C         1.13337091465463    0.08504453427967    3.48660668019908
C         2.54667085502508    0.43799170124688    3.17886711486416
C         0.02349590294935    1.02589621576369    3.50990966576291
C         0.17809942501096    2.47535797800982    3.30137010884316
C        -0.11270350068918    3.34117738368215    4.35471748019989
C         0.08995675374460    4.69740883550843    4.18545453405743
F        -0.19016422462926    5.52574428587368    5.21321442720614
C         0.57041586565663    5.23907938784353    3.00675685334992
C         0.84394330480256    4.35379677947838    1.97846376566308
F         1.30850263064046    4.84589676890311    0.81187224342621
C         0.65883141399073    2.99004491928338    2.09919742013690
H        -2.49816148528158    1.98206452994768    4.08508889475574
H        -2.46050754412626    1.02879011158788    5.57614941182033
H        -3.23005701801875    0.37332290701455    4.13999780218811
H        -1.28160770073670   -2.98272714738646    4.92186090751591
H        -1.35856822827747   -1.80349115109664    6.22933977576823
H        -2.59793256892172   -1.80434658233316    4.97629735573447
H         2.05314351571323   -1.94583155482171    5.44655899732609
H         0.99736152274496   -3.14987559715307    4.71916388579865
H         2.34782472232028   -2.45651246672216    3.79230144806118
H         3.14388048662465   -0.45084381365183    2.99439839167022
H         2.61110813393961    1.09104077789381    2.31281518511886
H         2.97148613400177    0.96837904584687    4.03256924554975
H        -0.46659994501619    2.97255793320391    5.30337259312092
H         0.72552641135960    6.29916394909737    2.89481243297149
H         0.86355224663530    2.34566232608792    1.25778267487140
C         4.45736206314551   -2.39406369529583   -0.22659267387383
C         4.23087780362545   -3.54223863441287    0.38432357168355
C         2.93027339278127   -4.01122216783990    0.96723357507706
C         1.77952709684975   -3.02183949905376    0.81111479257157
C         0.50550122192620   -3.55139613816600    1.48118762348095
N        -0.56279454248065   -2.58860617532016    1.38294596432641
C        -1.61748982873408   -2.88604951955237    0.70763588304334
C        -2.62035558877631   -1.87249799574170    0.55064647336074
C        -3.82171359893890   -2.09096994380575   -0.14898370225646
C        -4.71079763505176   -1.06146596103767   -0.27775138754832
C        -4.36879160223118    0.21210692370075    0.22307613103265
C        -5.21208276589116    1.33009859611747    0.06643571593424
C        -4.82337033017051    2.56664021916022    0.50527263676125
C        -3.56221676962917    2.73478668204702    1.09845414541954
C        -2.73045266994980    1.66488953886951    1.29108633836259
C        -3.11539164048388    0.37294448102951    0.88789898341910
N        -2.30269280820437   -0.69261499767629    1.10107229370050
H         5.43270294889566   -2.15079508684206   -0.61346538518365
H         3.69582312938792   -1.64859815252534   -0.37656517519164
H         5.04009949842941   -4.25325064950970    0.49992979938213
H         2.66944690379148   -4.95940950904696    0.48762731442816
H         3.09421703582612   -4.23101414860028    2.02679140596286
H         2.04904809202016   -2.06263415973859    1.25404676985343
H         1.58180161044287   -2.85256814199208   -0.24752508085012
H         0.20549100776745   -4.49149047567195    1.00813982301052
H         0.70702415674060   -3.73948276668695    2.53730931569149
H        -1.74469614492085   -3.85553453028716    0.23716786022366
H        -4.02091334655530   -3.06767864102524   -0.55794006492999
H        -5.65799241116960   -1.19773476828493   -0.77624423536129
H        -6.16364044289315    1.19158734318504   -0.42320523680352
H        -5.47072103545514    3.42001146910037    0.37850723175875
H        -3.24555244245878    3.72082623458636    1.40077982410675
H        -1.74823839377552    1.80505744346260    1.71000747067329
Cl        0.44421677606609    0.05371973892390    0.12801562474472
