67
 energy: -120.078938770057 gnorm: 0.000425991568 xtb: 6.4.1 (afa7bdf)
Ir       -0.49087126426508   -1.22976261171359    1.71238950453465
C        -2.71848059065575    0.57643729952151    3.62251014286121
C        -1.39575331605721   -0.08055378471914    3.45023422452584
C        -1.07268914103573   -1.42133611062393    3.87328223198555
C        -2.01241383449464   -2.34869950089461    4.56265558588827
C         0.35521992853500   -1.57691686275080    3.80457716332665
C         1.11749367505571   -2.69511324696486    4.42364982445161
C         0.90446712698234   -0.38481586793955    3.23991679825038
C         2.34767897005437   -0.03017779063412    3.14267999599404
C        -0.19191490639607    0.54840934110839    3.02990456979273
C        -0.03770474342766    1.97595746482115    2.70028398390394
C         0.72638538456014    2.77954928558486    3.54317433919640
C         0.85250068270524    4.12562068016373    3.25627885849188
F         1.58996383469485    4.89504430888206    4.08085112276853
C         0.25377831142865    4.71336971587429    2.15609492192316
C        -0.49413167601055    3.88747069008800    1.33627766083213
F        -1.08992961028604    4.41897939182527    0.25001642719072
C        -0.65652116130040    2.53801932331117    1.58814566927348
H        -2.76704864963032    1.51813587061235    3.08181249313404
H        -2.85693954862178    0.79202212703806    4.68317961247278
H        -3.53611831677023   -0.07034435395315    3.31304026048408
H        -1.71325549727346   -3.38434005432540    4.43274058317139
H        -2.00661834536236   -2.12737940409537    5.63065801005605
H        -3.02777226495813   -2.22341278182092    4.19879206444995
H         1.19261497229944   -2.49761141294662    5.49406401703041
H         0.60639323448078   -3.64553276167964    4.30190153049973
H         2.12439983652071   -2.76463207125515    4.02648422016565
H         2.94836104523528   -0.88189213686472    2.83961851945415
H         2.49551316578915    0.77431768794763    2.42766367081482
H         2.70340204238655    0.30153558415242    4.11861201858089
H         1.20534367237132    2.37648149485663    4.41994206760698
H         0.36840821543283    5.76335842454169    1.94485400140236
H        -1.21889946248161    1.93508889323842    0.89409796166210
C         5.56132019059870   -3.04342174816093   -2.15053458554854
O         4.81121824707373   -3.51540884952162   -1.03163666254238
C         3.53868156871104   -3.84100936738497   -1.23740725553949
O         2.97824718101544   -3.77797647131075   -2.30388376918988
C         2.88284999702125   -4.26988366574373    0.05821070802226
C         2.34078880282787   -3.10338916681248    0.91461676715629
C         0.98239600277603   -3.82923606991737    1.00749328090781
N        -0.17942005626896   -3.01098278083529    0.78466768374464
C        -1.04974328605639   -3.35646487188142   -0.10485658670852
C        -2.14684323050373   -2.46584880622091   -0.34434206818726
C        -3.10192368807526   -2.64634378154456   -1.34824822718383
C        -4.07563711933720   -1.68590460800967   -1.53109669812603
C        -4.05926367054509   -0.56602200801309   -0.69503578360079
C        -5.08628836956284    0.52103906334380   -0.88115808776649
F        -5.10568972281519    1.39109136207406    0.13696671106274
F        -4.85963540564721    1.23490499206529   -1.99639414017190
F        -6.32778672423399    0.02570348450567   -0.99214290051142
C        -3.08871954951073   -0.45278637602276    0.28750599788114
N        -2.15807220552413   -1.38205991105126    0.46964626670954
C         1.45350937807851   -4.81174717320977   -0.08466947748527
H         6.46604109303802   -2.60161412896412   -1.74253575014264
H         4.98309776145416   -2.30424328620392   -2.70712281495525
H         5.80706719840418   -3.87494466102321   -2.81285858686968
H         3.56859689338519   -4.91233867737489    0.60753469376888
H         2.86537543027884   -2.93934746434744    1.84873158759226
H         2.26330989687993   -2.17010992709428    0.36185726448913
H         0.85626398058650   -4.32296409908779    1.97476090276344
H        -0.96219976126621   -4.27355184251123   -0.67348038669862
H        -3.06270382712515   -3.52210857185719   -1.97595912209931
H        -4.83015254132177   -1.78626927076344   -2.29616125336196
H        -3.07324677515880    0.40459763920281    0.94455295513780
H         1.08028809553722   -4.57403029960719   -1.07895433528491
H         1.31192605453917   -5.86761601765852    0.12508569860171
Cl        0.50818939120771   -0.19975246949580   -0.18795808198815
