67
 energy: -124.421074429209 gnorm: 0.000488854191 xtb: 6.4.1 (afa7bdf)
Ir       -0.26105731595445   -0.89470821041470    1.34129415070880
C        -1.63569568452791    0.44972331464578    4.11111492013273
C        -0.40586612667309    0.10819812961020    3.34807903721485
C         0.34716840204660   -1.10016161422951    3.49063306692280
C         0.06412755626504   -2.19093504982505    4.46169164429226
C         1.53599072685549   -0.98335585375001    2.68043645757740
C         2.71138410516678   -1.89756037140287    2.73290473430197
C         1.52017095178311    0.29918449435885    2.04638243393665
C         2.64176722758851    0.89299701072028    1.27569879121824
C         0.28899631085834    0.95878686363429    2.41492056822827
C        -0.02053896492027    2.36658984817645    2.11647203645510
C        -0.27663099304438    3.25965399485660    3.15542414847989
C        -0.51371295593538    4.58788297889954    2.85357828653805
F        -0.75367207803320    5.44529664557212    3.86453845432157
C        -0.51169822846871    5.07199961941987    1.55717085546252
C        -0.25665684298358    4.15952968793907    0.54821943595629
F        -0.24944313623176    4.59097729804733   -0.72796867770206
C        -0.01061566368534    2.82288602610666    0.79917242045805
H        -2.15118427714661    1.30007955116023    3.67384222144476
H        -1.35701984654191    0.70363058216657    5.13459092952343
H        -2.31743046379449   -0.39603291522746    4.16134491211862
H         0.44729766990295   -3.14312403502593    4.10592291324461
H         0.56000399632999   -1.95829444051170    5.40473504251486
H        -1.00047521176796   -2.28027563478985    4.65587823231899
H         3.35008782273749   -1.59231744107537    3.56284165503424
H         2.40609711519660   -2.92610297720809    2.90002063248843
H         3.29034456428168   -1.84131129708469    1.81661553610224
H         2.69593518844952    0.46731781182076    0.27437956222591
H         2.50973882745894    1.96677222254210    1.17654060449473
H         3.58290069256746    0.68611379338499    1.78090665032023
H        -0.26382321941189    2.94541168596768    4.18567016422280
H        -0.69815138838632    6.11107073893299    1.34310913112940
H         0.17099219601940    2.14740223614570   -0.02229438941796
C         4.56094023107606   -6.65231530584558    2.26506206360014
S         3.57083768557730   -7.04602424789445    0.80166331191956
O         2.92429162729111   -8.32118113895501    0.99678553429252
O         4.38483564697782   -6.88531543206411   -0.37896608957180
C         2.30203239893168   -5.76222692182944    0.79075016805233
C         2.57678312252902   -4.54780692513534    0.18666216665827
C         1.61449928987253   -3.55470845562096    0.18236523345975
C         0.37146712667070   -3.79834678352751    0.76918932674035
N        -0.60688538546254   -2.79105026170080    0.72883935048243
C        -1.78276229225127   -3.05526413839729    0.24814419906537
C        -2.72048175802208   -1.97361210621372    0.20191811300610
C        -3.99582302648472   -2.05103741457451   -0.36415866269177
C        -4.79280872595513   -0.92414697446614   -0.38145416483273
C        -4.27946121123553    0.25647666062268    0.16261741597276
C        -5.10294460929900    1.51908527557091    0.14878456965214
F        -5.01077274302508    2.16373327022510   -1.02641818012665
F        -6.40405008226500    1.27532566836080    0.35066223349194
F        -4.71718172609527    2.38730741853336    1.09415311813982
C        -3.00102504464125    0.27161085807826    0.69897473150504
N        -2.24434512746379   -0.81804817282385    0.73328910883429
C         0.10101339002374   -5.02850950217432    1.37166567404581
C         1.07858581901498   -6.00825408137102    1.38709734943761
H         5.37328915843303   -7.36725349505424    2.31304735610961
H         3.92406428125639   -6.74359424567382    3.13485445699313
H         4.94714857696922   -5.64839973431870    2.14843613146164
H         3.53319483104515   -4.40446520822609   -0.28959199106929
H         1.79004789278478   -2.60753694239371   -0.30409878606841
H        -2.03100123783934   -4.03336688481915   -0.14667863749454
H        -4.34281865645206   -2.98193023422970   -0.78367384488414
H        -5.78693636138354   -0.94581808781437   -0.80110883615389
H        -2.58259523113343    1.18005245140106    1.10925717699923
H        -0.85604761672336   -5.20156370510444    1.83835094077097
H         0.90234600717065   -6.97272087818098    1.83584730495145
Cl        0.20756879336548   -0.38545901753184   -0.93247740326184
