61
 energy: -98.984488906420 gnorm: 0.000267008905 xtb: 6.4.1 (afa7bdf)
Ir       -0.73905003900693   -0.93204222400185    0.99041334409411
C        -2.01860044691350    1.13164839823630    3.46798863972821
C        -0.90163393130285    0.32301464455119    2.90410729254027
C        -0.68524764854798   -1.07234128721812    3.20965780305211
C        -1.52256005221646   -1.88273315412516    4.13956414781126
C         0.62155491403059   -1.43427630407973    2.72854928774847
C         1.34983231035162   -2.68516843074132    3.07534334624623
C         1.14262601401044   -0.32374296045336    2.00553161290928
C         2.51443686274190   -0.18750810986847    1.44124515086528
C         0.19862804453195    0.77725426085947    2.13121578621239
C         0.50368730929091    2.17505585415017    1.70784548612752
H        -1.84370405842620    1.26295252642533    4.53634243891494
H        -2.97377875664441    0.62665669938918    3.34750294824221
H        -2.08158409080283    2.11181326280182    3.00718466257340
H        -2.56854367623929   -1.59622822141661    4.07542695617925
H        -1.43503883656523   -2.94462986680824    3.92477897696246
H        -1.18711203448801   -1.71641518303970    5.16395871100490
H         0.66939269031860   -3.52326025058308    3.20012259069586
H         2.08814850002384   -2.93833582264990    2.31982754138773
H         1.86926415860444   -2.52988555104602    4.02181116995456
H         2.49057224682834    0.37598164627819    0.51159825374506
H         2.96093387127196   -1.15874589846548    1.25113060376045
H         3.14371809128964    0.35216911452555    2.14957317913990
H        -0.32281590026740    2.84683191676596    1.91959828948303
H         0.72807263135139    2.21353843599233    0.64292155768382
H         1.38368212498455    2.52766760094498    2.24537559597381
C         4.69138610823173   -4.53211415806427   -1.05695131696417
O         3.56250712533031   -3.68788336997937   -0.91108789481869
C         2.43238283304778   -4.18822516257256   -0.37579274233697
C         2.28336070959951   -5.48730547142940    0.11483587728437
C         1.07612892111982   -5.88848473507960    0.66169757781883
C         0.01158187179012   -5.01406064864379    0.70221381196750
F        -1.15324851931756   -5.41088260392022    1.26902501370270
C         0.12866350422907   -3.70724847006348    0.21366278535407
N        -0.93685696857982   -2.80066545409629    0.25486129328119
C        -2.12464730752430   -3.16257298885344   -0.11885581935739
C        -3.14019551605831   -2.15741825326589   -0.10256001652963
C        -4.46974734912959   -2.40073907265407   -0.50437430121071
C        -5.35885745774679   -1.36546803633423   -0.52730366223622
C        -4.90536216064111   -0.05871293899062   -0.23288169918011
C        -5.74709959323096    1.06372291843312   -0.33325797079775
C        -5.24748573643705    2.32191499501665   -0.11005888442486
Cl       -6.27478835570483    3.70672489385886   -0.25326057802463
C        -3.89078453068570    2.50848823976701    0.21136445430677
C        -3.06308398247502    1.42886097686725    0.34733967928239
C        -3.54255311353188    0.11855283193231    0.14867797259932
N        -2.71190963267646   -0.94338403180417    0.28057942172704
C         1.35089094050124   -3.30610051301881   -0.30894669936971
H         4.46473613568714   -5.39114392078830   -1.69334443886256
H         5.05893917284966   -4.87469510476148   -0.08615062698324
H         5.45038441903587   -3.91709175331950   -1.53578852717301
H         3.09749321526077   -6.19130487350991    0.08192750405511
H         0.95353351160523   -6.88436896664283    1.05619334322387
H        -2.33610957518337   -4.15613444271438   -0.49581362113852
H        -4.75825353127872   -3.40368407659205   -0.77264544194231
H        -6.39233500128806   -1.52003840933014   -0.79490625853011
H        -6.78021700483243    0.92221463025698   -0.60741761813528
H        -3.51461218581501    3.51053384515649    0.33850393761906
H        -2.01247581275664    1.56306787990830    0.54913764155773
H         1.45858323725879   -2.30716654515775   -0.70149760204246
Cl       -0.12705466886084   -0.10809230601630   -1.16380596676089
