73
 energy: -110.903337712449 gnorm: 0.000642457110 xtb: 6.4.1 (afa7bdf)
Ir       -0.82912245227924   -0.79947034487419    1.48110660083520
C        -1.72000720931045    1.65891149094948    3.89441083540938
C        -0.77208333154834    0.68454314410880    3.28799594353594
C        -0.73857359922020   -0.70414362135688    3.71043335996511
C        -1.65279574070284   -1.29183246776489    4.72943513585725
C         0.48210217571666   -1.28306394871659    3.24806288716964
C         1.06241819435868   -2.57033293452846    3.71746986240364
C         1.11277565908971   -0.32306452326087    2.38958211002134
C         2.48459997156068   -0.44233546254134    1.81800729507810
C         0.35311279933397    0.92241348533383    2.46357226552797
C         0.90968845678784    2.22766417671052    1.96691902684349
C        -0.02637128364596    3.05119066038968    1.07829218024123
C         0.70091294123366    4.29686542622465    0.57980093439328
C         1.18566653113806    5.14314777045068    1.75432558940240
C         2.09796671598450    4.32329348916034    2.66250047430346
C         1.37682509552964    3.07506237121747    3.16325897113003
H        -2.73731584285329    1.27610139469052    3.89105137625251
H        -1.70918967267668    2.61508949089053    3.38668513324006
H        -1.42655823870577    1.80867658802518    4.93469198816255
H        -1.63762326791713   -2.37722303760221    4.69479572176958
H        -1.32807177976082   -0.97893310284361    5.72247291064667
H        -2.67294959419973   -0.94589799507427    4.58738682560218
H         0.29162202046388   -3.30782032095075    3.92137618525033
H         1.76376346828551   -2.98391685746508    2.99939605680474
H         1.59948883961469   -2.37898064775903    4.64737848435039
H         2.79776116879109   -1.48001691562364    1.76431862225882
H         2.53110937623464   -0.01438457662288    0.81970293429179
H         3.18583550992988    0.09927070519824    2.45346219660185
H         1.79166382589477    1.99727361245396    1.36219203410332
H        -0.91336115691159    3.35634369136955    1.63304282397649
H        -0.34131459382742    2.44021983770135    0.23217879908499
H         0.03313755605227    4.88698888746265   -0.05107352457032
H         1.55619589765953    4.00162236673627   -0.03218911011220
H         0.32595759088194    5.49845057721274    2.32734726548415
H         1.72164109649855    6.01938781012440    1.38417532046891
H         2.41587918108480    4.92825782950823    3.51410145617507
H         2.99335630469682    4.03328963052734    2.10792511235056
H         0.51795645821518    3.37246606625087    3.76435374902417
H         2.04540066944723    2.48776473826277    3.79526632329169
C         4.58840351374216   -4.46588535399338   -0.60064659947423
O         3.45735100940568   -3.62249630942450   -0.46704717588024
C         2.35817954840170   -4.08543988188345    0.15130386670610
C         2.24060893199827   -5.35147294556271    0.72783054208755
C         1.05013215361464   -5.71419484381414    1.34003240856491
Cl        0.91740143469453   -7.29252917940197    2.05202537919403
C        -0.03445270067064   -4.85836847960668    1.39300001944690
C         0.09254792854496   -3.58917038024889    0.82193383844410
N        -0.98933238024958   -2.69296559576394    0.83600114404558
C        -2.15365331680976   -3.11913040211868    0.45408915273706
C        -3.21521481638691   -2.16813313890511    0.37694135402768
C        -4.45417460176802   -2.44997414505887   -0.20612546567079
C        -5.37557101266861   -1.43398004263538   -0.33040360861506
C        -5.02038389955878   -0.14491736207813    0.08386680780475
C        -5.99485946780254    0.87558743139761    0.02035086623459
N        -6.82638660128321    1.66467322609154   -0.01677981647161
C        -3.73740014598165    0.07996816208430    0.61671264567857
S        -3.16372755411957    1.66965491587861    1.07984967034741
C        -3.49057542404975    2.65151296222473   -0.41434090580792
N        -2.88591553505050   -0.92843108978895    0.81325332631430
C         1.27570361496284   -3.20181339518371    0.21246975393271
H         4.34612645085787   -5.36728175137750   -1.16850210214452
H         4.99582908083521   -4.73963986026611    0.37579200556357
H         5.32197756922412   -3.87842712767528   -1.14844600636699
H         3.05438230614688   -6.05600253263824    0.70511701079397
H        -0.94409027266210   -5.15717571980730    1.88616347504462
H        -2.30121866718274   -4.13773973640892    0.11592690462509
H        -4.67024927814486   -3.44703361902759   -0.55153848969529
H        -6.35844796717119   -1.61000005535235   -0.73958510565322
H        -4.55343567570071    2.79765895811620   -0.56668037277459
H        -3.00770994911370    3.60636672808451   -0.23252408829451
H        -3.02555408114559    2.15801523891327   -1.26149592615608
H         1.35627741025151   -2.23542986736876   -0.25791952872161
Cl       -0.46774934305266   -0.11525429207596   -0.76353613633262
