74
 energy: -113.413309308631 gnorm: 0.000181509937 xtb: 6.4.1 (afa7bdf)
Ir       -0.44083081180190   -0.78906020243280    2.23239259479318
C        -1.62302740031719    1.59808538576620    4.28590563827759
C        -0.52708006920009    0.61572122794382    3.99294386773184
C        -0.57777372873476   -0.72364624790447    4.40565999716967
C        -1.73887738085167   -1.44867871478305    5.02238298814808
C         0.84751384958775   -1.18957486760280    4.67891004951015
C         1.11435836423079   -1.91749650315722    5.97304460637155
C         1.68810063735347    0.04002548937953    4.40497496416444
C         3.16193079865786   -0.01912409252829    4.58929879008156
C         0.90604077585540    1.04244226358078    3.95797641005127
C         1.39356936596436    2.37183089809698    3.46216304590931
C         0.83011605533485    2.70734047183776    2.07624389447233
C         1.48022331228281    3.98366398069609    1.54818467486206
C         1.24487616373242    5.14345645518583    2.51337836089859
C         1.77846847713197    4.80453013566953    3.90330787590006
C         1.12269025886625    3.53052591890384    4.43033922527072
H        -2.56979419195617    1.09152522281823    4.44177945956263
H        -1.73623886893909    2.35655348491991    3.51904371831730
H        -1.36581686418378    2.09574239343841    5.22102987481154
H        -1.62903349861387   -2.52368389029340    4.90112026140653
H        -1.78293083411643   -1.22895789459413    6.08929801834980
H        -2.68011342580217   -1.14822183534870    4.57187641971550
H         0.48253013323183   -2.79594908943569    6.06601676967475
H         2.15442684505190   -2.22764440983946    6.02605241834180
H         0.90890012970262   -1.24430518203068    6.80247603651116
H         3.41145685036644    0.08812771184718    5.64502336668542
H         3.54772144649713   -0.97840381038248    4.24832186286514
H         3.66442862663532    0.77372081756658    4.04373397820904
H         2.48104783604520    2.29727216462240    3.35821163312882
H        -0.24757981651864    2.85586067809409    2.12822101159111
H         1.02473573552858    1.87783619880184    1.39252619217364
H         1.06989515490616    4.23112648192395    0.56708461299482
H         2.55483437851011    3.82664797752973    1.42832656211960
H         0.17428270374218    5.35190225489626    2.57764983108302
H         1.73510369811401    6.04414571677291    2.13756036639384
H         1.57956635472617    5.63146781584294    4.58829961340616
H         2.86171458227207    4.66980188013629    3.85377372424629
H         0.05253399859934    3.70471836243786    4.52594911092629
H         1.52161951367752    3.28601933580809    5.41624188946596
C        -3.90326067908440    3.71655048689575   -3.78544619137737
O        -3.28091526609642    2.87003161309868   -2.82129342518480
C        -3.84480454708051    2.80925820641547   -1.61655296139359
O        -4.83601814536611    3.42464178263918   -1.29665701440195
C        -3.10987696881090    1.89604894651026   -0.69847599625667
C        -3.57322093764425    1.71681662630653    0.61104816715376
C        -2.86691102159293    0.91173157318136    1.47768433330547
N        -1.73760349643291    0.27463524421537    1.13960862469472
C        -1.35104711189358    0.35040456792131   -0.17630323348530
C        -0.33794124780408   -0.58713032223311   -0.53377399861520
N         0.03943016325297   -1.40092271186983    0.41339282595270
C         0.89243412410850   -2.47298301898809    0.10611865797462
C         2.04211906396865   -2.28596321004991   -0.66272055645933
C         2.84087743579927   -3.38263472942286   -0.92709021833357
Cl        4.28061694634266   -3.17230764819025   -1.87826494341405
C         2.52806225719096   -4.65058447477911   -0.46205869853187
C         1.37449254180764   -4.83245191541804    0.30084539928183
O         0.96321764561587   -6.01059535295095    0.80856295347357
C         1.73213696263537   -7.17496342046085    0.56768722877483
C         0.56400748375550   -3.73231171023251    0.58650794166454
C        -1.99614244681111    1.17431740525370   -1.09723083019898
H        -3.22541698766645    3.75409494418784   -4.63356563650781
H        -4.86809792938676    3.30148260752369   -4.08198200870472
H        -4.06082637087773    4.71245664169776   -3.36813128764571
H        -4.47191577807882    2.22055276343186    0.92799818301134
H        -3.22042628604246    0.76522841677925    2.48456116028071
H        -0.00590905992182   -0.69848420905621   -1.55829860647405
H         2.31952535333700   -1.30762819619150   -1.01805260612936
H         3.18125269693911   -5.47304926736084   -0.69828272857685
H         1.20298681452765   -7.97989459592151    1.07344517949485
H         1.79450119710062   -7.39536485943902   -0.50100493798296
H         2.73761529154605   -7.07973590246015    0.98580009159439
H        -0.33676990246271   -3.88468076077199    1.15914578200733
H        -1.63237453542616    1.23572021355281   -2.10941215171949
Cl        1.15575558477203   -2.28373671801906    3.24250678676979
