68
 energy: -118.962567990431 gnorm: 0.000452918338 xtb: 6.4.1 (afa7bdf)
Ir       -0.29945045018454   -0.98129106142168    1.83449540274171
C        -1.54101805551413    0.37777090310557    4.66864643876913
C        -0.36114138591489    0.10029260727211    3.80388538556780
C         0.52581930577976   -1.00989459174130    3.96965873739792
C         0.43358491142581   -1.98303292447297    5.09331978085610
C         1.61780234337280   -0.85050664540756    3.04196923910783
C         2.88856690171954   -1.63055201191487    3.01442154799844
C         1.43066926258422    0.38247274879386    2.34193404603431
C         2.43927921586940    1.02579003155834    1.46276261427984
C         0.17569785293545    0.95070367886249    2.76970896183700
C        -0.28678945635779    2.30322676120325    2.42210056273666
C        -0.53106436265358    3.23485296529882    3.42961839666059
C        -0.92069336611081    4.51395769850850    3.07836284792522
F        -1.15105579011872    5.41070241751503    4.05760245453188
C        -1.08358428726147    4.91050460320763    1.76266526823190
C        -0.83270057655057    3.96183128551679    0.78596733882255
F        -0.98290537025839    4.31170377246492   -0.50683990734270
C        -0.43917683138656    2.67153439451864    1.08595466362562
H        -2.17413950144290    1.15033427586422    4.24228366134971
H        -1.19313802099960    0.71501344232504    5.64586784193102
H        -2.12959627727516   -0.52293347382931    4.82713700754803
H         1.19287490436730   -2.75477325977048    5.01929827924630
H         0.59020096089190   -1.44307680885746    6.02812497622462
H        -0.55011223246465   -2.44432076507307    5.14432874521576
H         3.63227485883887   -1.11169491125844    3.62065565033561
H         2.75886434064255   -2.63061366304455    3.41392795617700
H         3.27100195500446   -1.70306202043116    1.99978481667860
H         2.55737610263052    0.46907616337700    0.53409650720226
H         2.14588167625755    2.04182028742070    1.21486426505620
H         3.40295949418095    1.03899518665484    1.96951784276499
H        -0.39432374228182    2.98764495585690    4.46911178789274
H        -1.38737543314252    5.91266432951462    1.51034664319255
H        -0.26780075396439    1.95945741132864    0.29345460274954
C        -8.15821930958427    0.08540337941103   -0.93938916533508
O        -6.84428120472829    0.04376385650730   -0.38156056068690
C        -6.17610900980777   -1.09415331990350   -0.49945834998910
O        -6.59522833736748   -2.08864057869789   -1.04187928665311
C        -4.81696142074976   -1.01523957529775    0.12621816128326
C        -4.34274725483294    0.14188440635483    0.74986477323761
C        -3.07541164370871    0.13416349955136    1.30060775283122
N        -2.28310936569811   -0.93598896003050    1.27356360661762
C        -2.72791770432455   -2.06071181071742    0.65942136961707
C        -1.77425517550470   -3.12910345860291    0.64076228532171
N        -0.63557598801583   -2.91541422978582    1.22049014026938
C         0.38326342914302   -3.87304629525879    1.11435842238025
C         1.05836410367812   -4.30328855292284    2.24679525922652
C         2.10387927691693   -5.22497731381721    2.16275347174365
O         2.68339568771088   -5.55334878970534    3.33352750690597
C         3.74856203147215   -6.48910282814182    3.33946855679002
C         2.47529173255354   -5.71887853675199    0.91107554931027
C         1.80214457780809   -5.30293134112832   -0.22508902449947
C         0.76156202234753   -4.40293574977958   -0.12557196723260
F         0.11548861890921   -4.00962261179306   -1.24445584026238
C        -3.99303694115191   -2.12961742933520    0.07896817533980
H        -8.12702293126710   -0.18155523507302   -1.99676435245727
H        -8.80831467434813   -0.61731224921800   -0.41606414693975
H        -8.50678961650496    1.10560258153163   -0.80750418424304
H        -4.95557747374540    1.02613974162565    0.80187856430356
H        -2.68165163996624    1.02018427919201    1.77628907734874
H        -2.00482275220657   -4.06446851761149    0.14415823440227
H         0.74614812603349   -3.95213620238452    3.21476297241227
H         4.59776602736281   -6.12437277500839    2.75669135809592
H         3.42531962951826   -7.46040449903780    2.95812275208670
H         4.03900795177987   -6.58726890628410    4.38311764352251
H         3.27931641713271   -6.42784539234164    0.80755329814482
H         2.07672385403009   -5.67872881817820   -1.19771697293052
H        -4.33158800482606   -3.03008943211824   -0.40986723433561
Cl        0.12926377014941   -0.61525812004736   -0.47508320918803
