71
 energy: -103.662720251767 gnorm: 0.000211982790 xtb: 6.4.1 (afa7bdf)
Ir        0.11847527624851   -0.44857607191584    1.54268062427051
C        -1.43439084932134    0.88168943785858    4.20814712955343
C        -0.15962967396457    0.43772823722788    3.57527548473550
C         0.43850694297001   -0.85248617228036    3.71948371169497
C         1.72585188142818   -0.82335135278755    3.07225071913307
C         2.78369546180571   -1.86633259544801    3.21041319910210
C         1.92416004685250    0.48714945728956    2.54049517835157
C         0.73985777076785    1.26076061051963    2.80618030885936
C         0.60172210145088    2.70211176095919    2.55205918504392
C         0.33837847767903    3.58441259245521    3.59845910074581
C         0.24479598198767    4.94154021121502    3.36071644659061
C         0.41059210854192    5.45772485068583    2.07630918187292
C         0.32537160127363    6.90490818372585    1.82898209316018
C         1.22718299585839    7.52893737651688    0.96904864505918
C         1.15654457973409    8.89112979637869    0.74257713726922
C         0.17962957369711    9.65132510107596    1.36492590131739
C        -0.72584180943498    9.04024123538839    2.21708010170380
C        -0.65193377402544    7.67927884031283    2.45097368637298
C         0.66989822710373    4.57060643383395    1.03256028780218
C         0.76534866843675    3.21334911120444    1.26479687560737
C         3.19097390363155    0.99593106466083    1.94847536380309
C        -0.07743666614731   -1.97273319841207    4.55571292203720
H        -1.26248886660965    1.06421678653669    5.26950781876258
H        -2.20435267816352    0.11790624123559    4.12585737299154
H        -1.79470661294723    1.80153349900139    3.75549642220332
H         3.31190264061746   -1.71106427542626    4.15213551299005
H         3.50369641102100   -1.80005275525449    2.40036778607585
H         2.35625889965896   -2.86518867469207    3.22239044759329
H         0.23667133853229    3.20880365344962    4.60480148697334
H         0.06590100253981    5.61541265042239    4.18516328754330
H         2.00208931244032    6.94697743794902    0.49160966179805
H         1.86736902273006    9.36298468193333    0.07958462192369
H         0.12457020249633   10.71527336923147    1.18641245996943
H        -1.49236671172445    9.62823250994957    2.70096063380907
H        -1.37023170294355    7.20991585132594    3.10726980755673
H         0.78098131213116    4.94785292600914    0.02707310955543
H         0.95215739847556    2.53699173714965    0.44338019512632
H         3.40707368170714    0.50273376860487    1.00184129047577
H         3.12569441433422    2.06569794912877    1.76808203554985
H         4.01680553227852    0.79479225696546    2.62990057922796
H        -1.15474341164009   -1.90947282513776    4.67936635412922
H         0.17649529032314   -2.93507890297713    4.11732961439933
H         0.38291437282523   -1.92158359912659    5.54287534606583
C         2.66682987391350   -6.95761231851058    1.34508421312504
C         1.82544641021589   -5.73114523752171    1.20515294780240
C         2.36891149215196   -4.54529089746130    0.71615666945162
C         1.60751426890783   -3.39911058839744    0.61931158395937
C         0.26182027844740   -3.42397956474188    0.98564924712860
N        -0.50167834051499   -2.25958284311950    0.85146657504480
C        -1.66118246572921   -2.29753049669708    0.27727215739439
C        -2.36522747950288   -1.05295477193950    0.15506719738311
C        -3.58248816682928   -0.89115345707204   -0.50743335792622
C        -4.13322216175845    0.37380782307907   -0.59567055534872
C        -3.44850748622057    1.44389285310510   -0.02953349488687
C        -2.24397200440642    1.21180585659898    0.61215100935131
N        -1.71691383649730   -0.00365972293387    0.71550174434962
C        -0.29753559120887   -4.60797792547077    1.46907295915075
C         0.48517658791103   -5.73915156445537    1.58575687332134
H         3.09694806858280   -6.99764552892556    2.34624921089383
H         3.48517720297266   -6.95273218942507    0.62972779034313
H         2.07255704432257   -7.85655542175424    1.20168333726397
H         3.40304470592383   -4.52204244141500    0.40812182425108
H         2.02310584468724   -2.48631990302696    0.22154498853401
H        -2.06427608802865   -3.21291522717875   -0.14030756028483
H        -4.06788001565399   -1.74811713991985   -0.94548079993117
H        -5.07371391984902    0.52890564631178   -1.10040572420005
H        -3.83983124994812    2.44638987670514   -0.08269215828409
H        -1.68242312104807    2.02487870277391    1.05019610652875
H        -1.33111011417753   -4.62552428404193    1.77955554757985
H         0.04947886810269   -6.64666927369063    1.97562310659066
Cl        0.96751672069528   -0.04320815765654   -0.64730356748120
