70
 energy: -103.601883833684 gnorm: 0.000449192146 xtb: 6.4.1 (afa7bdf)
Ir       -0.78916486847398   -0.35324136008179    1.51198430136271
C        -1.70723481323397    2.02372300214062    3.91747131377117
C        -0.76550255939892    1.01677844123827    3.35265663351794
C        -0.79374697748660   -0.38529461372643    3.72640012897658
C        -1.77568693187989   -0.98067387557922    4.67808624664252
C         0.43709623386618   -0.97969804514561    3.30335777442195
C         0.93904640354019   -2.31908873958028    3.71315802009921
C         1.14160932793660   -0.00955441911638    2.52641143270946
C         2.52976548816817   -0.12763166236476    2.00006637026720
C         0.40915854294203    1.24395666501258    2.59874677888207
C         0.96059623649364    2.54207263704309    2.11447599629646
H        -1.56599941128789    2.05570155475765    4.99831588152345
H        -2.74121635958262    1.75180322400442    3.72460873711013
H        -1.51754121512813    3.01470963612261    3.51967146074474
H        -2.76627658743202   -0.56081303754714    4.52718608812826
H        -1.82850154031511   -2.05989956405922    4.56603473131873
H        -1.46556329351906   -0.76120995332020    5.70043501235098
H         0.12396065955708   -3.02476474765131    3.84763253421716
H         1.64081979854770   -2.72309943528815    2.98879483083484
H         1.45750668192231   -2.21646721230139    4.66732335210640
H         2.61963865053436    0.37705007645312    1.04117960212284
H         2.82161969693175   -1.16686291434541    1.88184704275953
H         3.22041799379156    0.34841045511078    2.69709008707513
H         0.27538743794151    3.36284947838012    2.29903927295562
H         1.17182515091060    2.49608934680816    1.04766834237500
H         1.89823606729611    2.74677689432129    2.63079307136936
C        -0.43288910315173   -7.08441923043902    2.19417762392670
O         0.77295774883586   -6.64338888248709    1.59701492066792
C         0.84713142775829   -5.38045441418656    1.13485673803791
C        -0.17167792936847   -4.43609159638129    1.18817451770645
C         0.02498022187831   -3.14512555388384    0.68865943569344
N        -1.01844113586096   -2.20957282496590    0.76046568883295
C        -2.20888638098931   -2.54793910017663    0.39888998376544
C        -3.27310874536357   -1.59507464979269    0.53309835388798
C        -4.58848534539547   -1.97259069097235    0.31756118362501
C        -5.58548479716071   -1.03097184980251    0.55259900981471
C        -5.22040873545442    0.24265312007784    0.90029299286990
C        -3.85321047096506    0.61471165460264    1.00486068285206
N        -3.51007733656796    1.89892968526059    1.24623570898578
C        -2.38969152313790    2.53157345989084    0.57169880300503
C        -2.88458914646461    3.24936032676610   -0.68750882340296
C        -3.93517597678356    4.29730239372208   -0.32858436964365
C        -5.07324073753067    3.63854164080977    0.44817190450965
C        -4.49203350828150    2.89355796690033    1.65152779800990
N        -2.89810203575021   -0.34199946471229    0.90684701906018
C         1.24571354735166   -2.78168439498798    0.13168066168675
C         2.26412003572892   -3.71639197082727    0.05646452591564
C         2.06365031914427   -4.98674133438496    0.55187553362346
F         3.06811922396064   -5.88677498200668    0.48391097248458
H        -0.25084054335374   -8.11902898743492    2.47633129428718
H        -0.66681402665768   -6.49972603126077    3.08735036924199
H        -1.26397244575368   -7.04157100025326    1.48568144689798
H        -1.11810569564007   -4.68325604897541    1.64099350789826
H        -2.41742757914573   -3.52816906224704   -0.01607420283376
H        -4.82067737994084   -2.97353494813206   -0.00276773313491
H        -6.62600343626025   -1.29004812820295    0.43769465457575
H        -5.98519229774183    0.98522978425943    1.04136151844305
H        -1.94318009431438    3.25978918679125    1.24889723554153
H        -1.64421882131930    1.78876082491633    0.30017110077347
H        -2.03435658373567    3.71657585993448   -1.18455534188894
H        -3.31190272190633    2.51639665004823   -1.37509046329349
H        -4.32008773794626    4.76865321761986   -1.23398727501397
H        -3.47823439378299    5.07795673525535    0.28376752527616
H        -5.60111740170701    2.94296387144156   -0.20669195680094
H        -5.78561564812748    4.38901512307353    0.79226892310296
H        -3.96123277303159    3.61374174369676    2.28084606489716
H        -5.27066674955350    2.43554075870599    2.25978076248894
H         1.37625121317155   -1.79033414139203   -0.26818184691826
H         3.21636323713452   -3.47079904905626   -0.38498479980997
Cl       -0.12444054947393    0.23333850188032   -0.73317869358452
