73
 energy: -101.761536955777 gnorm: 0.000539671038 xtb: 6.4.1 (afa7bdf)
Ir       -0.03357622590011   -0.88667489964655    1.00526167687497
C        -1.99430280621679    0.86924377025651    3.22814238796841
C        -0.67430403257434    0.29249552367078    2.84689820169912
C        -0.27688674147878   -1.04270790960514    3.22317348426387
C        -1.09263183680231   -1.97352710651963    4.05443259116047
C         1.12458576323892   -1.18664999747548    2.93970307782789
C         1.99937591274962   -2.28106847792670    3.44722606545883
C         1.55576670580997   -0.00246916499136    2.27583898751885
C         2.96323013562022    0.33488845637579    1.91578624035325
C         0.43412554235594    0.92878095277860    2.22399867935578
C         0.60429366459096    2.37513911539150    1.84433195270181
C        -0.39837449386685    2.90435218576812    0.81320306507721
C        -0.04223704579853    4.34153396370233    0.44246628831520
C        -0.05382847300751    5.23210800412332    1.68261196776786
C         0.91567131058462    4.69914702629100    2.73462168482072
C         0.57523117678539    3.25763676389805    3.10323011417787
H        -2.80802342592518    0.18418316824118    2.99805158850395
H        -2.18207426311047    1.82126765877510    2.74485367737937
H        -1.99832882370720    1.02981194952546    4.30718770989529
H        -0.80427421258098   -3.00779232488319    3.89010542442753
H        -0.93412370092505   -1.74193095069927    5.10846165368054
H        -2.15233525665702   -1.86759963345627    3.84173457401956
H         1.43748932757413   -3.19537553255621    3.61573436443584
H         2.82995893630124   -2.48121111376368    2.77614918887388
H         2.41390178754595   -1.96645903546779    4.40635995175130
H         3.60325616034371   -0.54060314570563    1.96981903526624
H         3.01927487961664    0.74462569484320    0.90913044199474
H         3.34538300423232    1.08466766029193    2.60855295636941
H         1.59571862150663    2.47640884748346    1.39258139487902
H        -1.41245790607221    2.89521298640104    1.21330264501354
H        -0.36838997757882    2.27451433599076   -0.07708538665118
H        -0.75516548418418    4.72009849344391   -0.29282383272929
H         0.94925978363695    4.36683194931476   -0.01565001293293
H        -1.06350156752965    5.26279257839932    2.09974769977982
H         0.22089839397316    6.25279553380546    1.40884117073110
H         0.87482999244263    5.32518256114833    3.62840995110022
H         1.93435382019087    4.74660318449668    2.34253932021836
H        -0.41552117585935    3.22664658000160    3.55751612686155
H         1.29302572275575    2.88291594230006    3.83567698781871
Br       -5.05742472582221    1.33499993942670   -1.06633800448096
C        -3.76638789697171   -0.06433008964056   -1.05141236086544
C        -3.87220378076649   -1.14097602885647   -1.93091977744502
C        -2.91768051709323   -2.13380905921154   -1.85632020471374
C        -1.89328526536279   -2.03138038523709   -0.91223728350545
C        -0.84054864567198   -2.98863451311370   -0.74214477926604
N         0.07332452616667   -2.72403286999428    0.12963477990632
C         1.15572323205105   -3.65788119568657    0.31290680240676
C         2.46105727703095   -3.13343978452130   -0.30444608438014
C         2.42676678646938   -3.16152038406962   -1.83564111593406
C         3.75185886072360   -2.71702167728963   -2.39189414572379
C         4.69593731216892   -3.64160561326820   -2.81846076443583
C         5.92218165988906   -3.22299594546765   -3.30685773662236
C         6.22013597130805   -1.87234067025679   -3.36976563225527
C         5.28504936766096   -0.94265159997436   -2.94390902006896
C         4.06055133931661   -1.36351866378642   -2.45726939757550
N        -1.80751349341647   -0.97291195812809   -0.06709114927627
C        -2.71951969327668   -0.01221897032413   -0.14237558785941
H        -4.67681582274750   -1.18786189078307   -2.64760623641310
H        -2.94974345151224   -2.98141135146443   -2.52193240517418
H        -0.82655197378895   -3.89912346323991   -1.33119553549972
H         0.90205626472326   -4.61945634385028   -0.14365512234387
H         1.30249659150745   -3.80090145728660    1.38382689419191
H         2.63447167229971   -2.10830379550407    0.02561263184152
H         3.28211065172546   -3.75770109933183    0.04960202269538
H         2.20705767609275   -4.17291096073735   -2.18200770199655
H         1.64583908563228   -2.48604204295610   -2.18858286555830
H         4.47188334907623   -4.69832080033798   -2.77674368872147
H         6.64672644732546   -3.95196934532850   -3.64124313575845
H         7.17632335159646   -1.54517644356546   -3.75231402296040
H         5.51216389230277    0.11268732721918   -2.99600196434093
H         3.32920341898944   -0.63761502797551   -2.13366154169279
H        -2.62236392297027    0.82518025176594    0.53135374028489
Cl        0.80536926327352    0.00363331872704   -1.03712670248960
