65
 energy: -91.426220238063 gnorm: 0.000568534911 xtb: 6.4.1 (afa7bdf)
Ir       -0.67832647315494   -1.13771783381070    1.93015229809801
C        -2.48683627425975    0.95910320841919    3.99554450995310
C        -1.22537593506978    0.23805268875164    3.66170918316718
C        -0.87026550261388   -1.07418026491826    4.15683398062033
C        -1.69317481815851   -1.89500284716869    5.08996337907763
C         0.51735832672916   -1.29780101680523    3.85807993865281
C         1.35163252895841   -2.38599294934826    4.43891771762040
C         0.97581704473099   -0.20322809375515    3.06508875554724
C         2.38219429960114    0.07977004700136    2.65683903256309
C        -0.10218464529527    0.77050104036750    2.98375381111910
C         0.06093175022435    2.14557822335137    2.43760142313925
H        -2.35864978121818    1.45574887469992    4.95851133088117
H        -3.32624220959004    0.27429621474659    4.08505540989921
H        -2.71825914448313    1.72296068601960    3.25747294832867
H        -2.75388354676808   -1.78578998166682    4.88313807966736
H        -1.42974710534202   -2.94687644471418    5.02594724608384
H        -1.51187838012821   -1.56220625911563    6.11270466750561
H         0.80135220891229   -3.32084998883923    4.50986166849018
H         2.26401272266540   -2.53810341752806    3.86943932526193
H         1.63623865070676   -2.09347274745085    5.45077383970904
H         2.40774945086023    0.56808736752919    1.68570506760700
H         2.97320212844032   -0.82982141811202    2.60799929787679
H         2.84062283048048    0.75021059781743    3.38423528451517
H        -0.87876851903917    2.68938922908795    2.43444212421013
H         0.44589872363830    2.11034312897990    1.41988455672621
H         0.78057260170729    2.69089915917604    3.04837149963111
C         1.65263794123361   -4.60133810385378   -1.85523845711162
C         1.58122892489141   -3.20083563464601   -1.25598289923140
C         1.93131838505475   -3.06078803990386    0.23231947615045
C         3.33896426876410   -3.56608567487258    0.59889378066355
C         3.46731577498932   -5.04684259076311    0.95210742628557
C         0.86065737399677   -3.70177434625890    1.14357498128925
N        -0.37490319621604   -2.96782252314680    1.09099688717293
C        -1.33095829181714   -3.41062256913062    0.34569828852163
C        -2.53128753604448   -2.62889167351824    0.27289383318906
C        -3.62633739423721   -2.93885344180285   -0.53023705927913
C        -4.72342526499557   -2.09029218233870   -0.53178208031319
C        -5.90141474207567   -2.43233352324140   -1.38747656255266
O        -5.94488607440405   -3.41284386817387   -2.09277667716065
O        -6.87826579980376   -1.54237561755402   -1.27112182848258
C        -8.05819817165036   -1.76972268073121   -2.04122331210452
C        -4.68160526993643   -0.94260193053224    0.26442742490004
C        -3.55718573775658   -0.70161825056571    1.03008669214630
N        -2.50899901428281   -1.52180960233347    1.05545559992412
H         1.05202419140739   -5.31675554797320   -1.29894211808575
H         1.27859237437249   -4.57472159792261   -2.87681823465998
H         2.67802997336259   -4.95817365145813   -1.89016067898991
H         2.26072160703823   -2.55424141976621   -1.81513305866703
H         0.57735450859231   -2.79560580718603   -1.40632451377861
H         1.91012018224452   -1.98380884970349    0.43354973628265
H         3.99829850261621   -3.34363462199101   -0.24156962844890
H         3.70629615354768   -2.98860984797763    1.45053583323757
H         3.07818434893456   -5.68688947400160    0.16818037060095
H         4.51927358661246   -5.28883918491902    1.08774306619794
H         2.95289595627382   -5.28313913374338    1.87965451530429
H         1.22778309360258   -3.68198233708496    2.16908019236279
H         0.69406585540146   -4.73725758107857    0.83876515062409
H        -1.24752035184942   -4.33645922139123   -0.21213952291403
H        -3.62756448240685   -3.82059353286971   -1.15196082569056
H        -8.75279913366805   -0.98253242158501   -1.76295188512508
H        -8.47308655643522   -2.75282985463092   -1.81306042303666
H        -7.82656075315851   -1.72290225806581   -3.10653048760058
H        -5.51260901613038   -0.25775216019610    0.28179899566733
H        -3.49720020460318    0.18195387827757    1.64664112114862
Cl       -0.17948194400416   -0.16915732406780   -0.19618749437896
