60
 energy: -96.246163011315 gnorm: 0.000554292693 xtb: 6.4.1 (afa7bdf)
Ir       -0.51861948507156   -1.04365851481318    1.65601601376440
C        -1.78220832883821    1.80482128782345    3.23892297284046
C        -0.89687258311459    0.60961750596998    3.17255405124815
C        -1.22064337768703   -0.68220716280020    3.75908120561038
C        -2.51728848390598   -1.02891379135448    4.40501970231905
C        -0.02104812570437   -1.43939429474998    3.86492914070096
C         0.11426727807717   -2.69136216020344    4.66065799008869
C         1.02086210030203   -0.69926707786441    3.19586651865306
C         2.48137972655787   -0.99032161039786    3.17808001786953
C         0.47737768057106    0.59892890910079    2.83205514095551
C         1.30338453577204    1.74266000116733    2.35539032478046
H        -1.63241193528467    2.27970125797445    4.20999106277531
H        -2.83200617689341    1.53876906168955    3.15863334181885
H        -1.54358313091535    2.53534200416725    2.47177563433190
H        -3.35396770713680   -0.57607132433954    3.87904006010455
H        -2.66036409663528   -2.10535095811271    4.44283640729402
H        -2.52138957587307   -0.64883888895601    5.42745397562548
H        -0.54741325568246   -3.47637158125100    4.29995417807311
H         1.13569052852267   -3.05935840513091    4.66043816783590
H        -0.16792352384963   -2.47405369923194    5.69136210108745
H         2.87010609081928   -0.90619152657761    2.16529428959217
H         2.71156064111288   -1.98043658975889    3.55704358681332
H         2.99721489908535   -0.25288527596983    3.79292807352731
H         0.68613559048669    2.58961556782907    2.07173279068699
H         1.91428790521104    1.44678709960979    1.50475334204531
H         1.97329093266877    2.05613232854188    3.15619485612640
C         4.82404040368179   -5.42206597400028    1.95769419731437
O         3.60866483925791   -4.73473466286548    2.20089646378378
C         2.71636873314170   -4.60379609818383    1.19981083081925
C         2.87361186537109   -5.10122473529239   -0.09465844960358
C         1.87820349084892   -4.90213426397681   -1.03635895802378
C         0.72591600580662   -4.22636305014820   -0.69650275582836
F        -0.23003493638965   -4.03295318501845   -1.63446013136490
C         0.54673197258157   -3.70281520088334    0.59106150574072
N        -0.58865190539505   -2.94584249257869    0.90522706771418
C        -1.75363949166109   -3.37361464440986    0.54984157615845
C        -2.86868177066816   -2.47232290660855    0.61804369973115
C        -4.18642389773140   -2.91162881937818    0.57577921004854
C        -5.20445086221126   -1.97626298844532    0.66389009297291
C        -4.86169448027816   -0.62972157718967    0.65781952792752
C        -5.87589186679123    0.35587731738714    0.67202788931286
N        -6.72442189746436    1.12645488241283    0.69740212405928
C        -3.49661915452003   -0.24680954380410    0.59230969051414
S        -3.20052306551063    1.44293622717216    0.31532937953136
C        -1.56357769849805    1.49620375225837   -0.45294601348855
N        -2.52205946091317   -1.15829176807852    0.69352537309101
C         1.55331215447961   -3.90347839161994    1.52142566364679
H         5.36877725981230   -5.38589544234713    2.89864753195442
H         4.64203304493117   -6.46368373310869    1.68214013096483
H         5.40923801152718   -4.92817718443589    1.17828628055839
H         3.76154846674538   -5.63821372859216   -0.38323579534396
H         1.98970230051183   -5.27140197901639   -2.04327377746920
H        -1.90716977438612   -4.37478886855707    0.16158637560732
H        -4.40071270289063   -3.96476624989820    0.50508109136505
H        -6.24144808864498   -2.27131634179048    0.69819503931324
H        -0.77577666441255    1.35413903973765    0.27890639110040
H        -1.49134034754150    2.48534618199485   -0.89564832746955
H        -1.50244081396568    0.73627679128644   -1.22457313765131
H         1.43534677953904   -3.53110192646153    2.52156912058946
Cl        0.82682342903025   -0.69211859779169   -0.28664285413726
