72
 energy: -111.778501324562 gnorm: 0.000183762962 xtb: 6.4.1 (afa7bdf)
Ir        0.27856948741862   -0.59082060663619    1.55957826360516
C        -1.30022293696857    0.63969943104835    4.24355016519502
C        -0.01065738868344    0.29421938151397    3.58007311044644
C         0.69985600316471   -0.93679251215327    3.73339406682277
C         1.95240358360037   -0.82050032652948    3.03306540243059
C         3.09176690300998   -1.77873514900724    3.12721935444405
C         2.03696454875052    0.50096952874761    2.49046370615921
C         0.80471136110924    1.18077989733628    2.77915896107340
C         0.55059057170813    2.59983657098009    2.49823553502381
C         0.15063578655577    3.47113781522210    3.51034342440154
C        -0.04878321039557    4.81088037479474    3.24091959537285
C         0.15006136065663    5.32131929012479    1.95921190803358
C        -0.05027299883050    6.75119356443950    1.67929048312076
C         0.86779928501470    7.45410407343813    0.90198723876621
C         0.68805026212182    8.80167502842835    0.64916959371554
C        -0.41681380007171    9.46459729465918    1.15865210593426
C        -1.33928041761496    8.77291998449075    1.92691428156904
C        -1.15601314853549    7.42766445786991    2.18977033202672
C         0.55078482935968    4.44743761530212    0.94970132169139
C         0.74556876022817    3.10654184195147    1.21216864398885
C         3.24247966561883    1.09716511216758    1.85590563625367
C         0.30146832075553   -2.07723923549007    4.60405656039879
H        -1.11153739935266    0.88479713683592    5.28938990541200
H        -1.99107179702356   -0.19985188904914    4.22117829164974
H        -1.76606102448184    1.49725757438882    3.76631553718571
H         3.70838842935854   -1.51519769811858    3.98758984037110
H         3.71344723562246   -1.73416027900360    2.23752522766297
H         2.74099047526822   -2.79816698486123    3.25834911827195
H         0.02735249617160    3.10547522382359    4.51736980529212
H        -0.33746366420283    5.47814214401442    4.03920436520495
H         1.73891023314389    6.94662405836672    0.51332770671245
H         1.41326294027589    9.33878940357640    0.05491107078971
H        -0.55777947336429   10.51644946552189    0.95752758172623
H        -2.20422502816176    9.28567094952312    2.32220706005641
H        -1.88587933202547    6.89108691898732    2.77853607665510
H         0.69413770695701    4.82151377751416   -0.05281610487482
H         1.03332346020033    2.43703797484932    0.41476649193356
H         3.34342455762972    0.76421784211524    0.82280085838511
H         3.17350619988472    2.18232102579194    1.85651856347240
H         4.13489270523064    0.78774148777269    2.39651401802664
H        -0.77191421247013   -2.09291885029074    4.76769967881789
H         0.61101252198232   -3.02674944042656    4.17351434319906
H         0.79255635566788   -1.97050953147939    5.57188976308541
C         0.70612800965008   -8.09458308924402    2.80135369400773
O         0.00498467143849   -6.88509911738099    2.57118252234744
C         0.64117886538129   -5.85948305214615    1.97638929011535
C         1.97579885206964   -5.87578703459891    1.57107101607553
C         2.51881770263509   -4.75011262271150    0.96850024670788
Cl        4.17563028933823   -4.78995460892028    0.45413461525515
C         1.77803183656381   -3.60101075694207    0.76812744630690
C         0.44168705023706   -3.59444372626820    1.16781684432372
N        -0.31965428625380   -2.43574996502148    0.94961378633924
C        -1.45011602384186   -2.51050137963900    0.32570659447606
C        -2.16300656809744   -1.28052383617923    0.12679589797309
C        -3.35362919472136   -1.16420700999636   -0.59130505642807
C        -3.92399541974956    0.08628763554348   -0.74314251893931
C        -3.28617858402957    1.18565821962274   -0.17895921906436
C        -2.10528818730589    0.99802089290290    0.51975224304162
N        -1.55654665601023   -0.20176937318916    0.67980117207817
C        -0.12697551737131   -4.71008123467427    1.76451804212763
H         1.55436444364783   -7.93944008346209    3.47259517807617
H         1.05084157819560   -8.53678699194916    1.86335557094238
H        -0.01341602317797   -8.76006624744947    3.27336227441611
H         2.59527795200852   -6.74454379204018    1.71325233225062
H         2.19841590071158   -2.73659126649739    0.28219358825012
H        -1.82542322380273   -3.44858492631107   -0.06661959513282
H        -3.80467027886010   -2.04409433835698   -1.02079150844671
H        -4.84358883394080    0.20726460541628   -1.29365218586602
H        -3.69603630065034    2.17732868880176   -0.27709826604814
H        -1.58246614933779    1.83600229970065    0.95933111091725
H        -1.15310113396648   -4.70650939609528    2.09410637099769
Cl        1.16195301565436   -0.28929023609790   -0.62915637669077
