94
 energy: -149.530542250153 gnorm: 0.000658477261 xtb: 6.4.1 (afa7bdf)
Ir       -0.35427091468507   -0.19595819671862    1.78735628990245
C        -1.93022609132275    1.42080770142195    4.31543793886379
C        -0.67440766264856    0.83664089259360    3.76840259267945
C        -0.25704103084254   -0.51767886109846    3.99678503189348
C         1.08177917545005   -0.65774217399083    3.48314908659360
C         2.02372519295301   -1.78616363198676    3.72666596296663
C         1.46052014819575    0.58248155752145    2.89230749409172
C         0.36814556382882    1.52100129916454    3.05801405641885
C         0.51849607657084    2.96574850710348    2.86460025567358
C         0.18036847742498    3.85034030516024    3.88894798915597
C         0.44336855601593    5.19864509062477    3.76582047315441
C         1.06129501209588    5.70910969396363    2.62496927602250
C         1.38626184645425    7.13784368413810    2.52429966706547
C         2.57555163162789    7.55490049706820    1.92909960188731
C         2.89188739954737    8.89817751600201    1.84850333263832
C         2.02466693131821    9.85044661175677    2.35872628206125
C         0.83893006529913    9.44842411142288    2.95139327936974
C         0.52326586784309    8.10445335208368    3.03671751876512
C         1.38402281706007    4.82464079283874    1.59736318595255
C         1.11352381795740    3.47637799068597    1.71103823856716
C         2.82889667119098    0.90508807350835    2.40533375744350
C        -0.97839483081602   -1.47975486572905    4.88024722066988
H        -1.82786629366366    1.52579842330485    5.39629233852921
H        -2.78051348531461    0.76740493520910    4.13084248484954
H        -2.12384151267268    2.39658776307551    3.88205919689791
H         2.78412311144584   -1.45869148757714    4.43715172769514
H         2.52862518778468   -2.08158523927129    2.80932578220071
H         1.51662875978488   -2.64803517270487    4.14561537867662
H        -0.24345450729435    3.47789667844100    4.80745044169834
H         0.20353293242952    5.86167542455856    4.58330828374450
H         3.26692342455617    6.82044603301637    1.54318950108593
H         3.81933031833563    9.20468915004973    1.38668040743944
H         2.27033541966256   10.90010611799246    2.29256784040400
H         0.15638632722703   10.18748141138312    3.34528249079289
H        -0.41345838733914    7.80293373309721    3.48256987198034
H         1.83147347341469    5.20526382775662    0.69185807567018
H         1.34898465399588    2.81009081340001    0.89593924090342
H         2.94602427838283    0.63664485909716    1.35561705126837
H         3.02005589670386    1.97175354623730    2.49882595870219
H         3.57034668647603    0.35053542840982    2.97614309984564
H        -2.05091820843177   -1.44341822606042    4.70840694397172
H        -0.63028631616436   -2.49691898840999    4.73091001607061
H        -0.79659746849947   -1.20812018026896    5.92097219568026
C        -2.02724448881662    8.74092418066698    0.81641691537778
O        -2.22969876668338    7.35822816885606    1.08938475066120
C        -1.46607002008775    6.48964029469592    0.42134999554180
O        -0.60480708952289    6.82181797647042   -0.36227245826045
C        -1.82883139095670    5.07887306949710    0.71102334611628
C        -1.22553325415276    4.07363655369736   -0.03950296234971
C        -1.59478890854880    2.75383599408539    0.12895101996179
C        -2.59341478568027    2.42168071539181    1.04202306606531
C        -3.14485839546522    1.05837092572221    1.02383131826342
C        -4.52736887228953    0.92935385592988    0.85109095105103
C        -5.09427271918087   -0.31028638841981    0.61683787437242
C        -4.25454037838837   -1.40768601303337    0.52378161702699
C        -2.89514643072325   -1.22868208711900    0.75668415544609
C        -1.94506028715616   -2.30323789091097    0.67761296301308
N        -0.73702849169474   -2.05866542105092    1.04372658981592
C         0.25233154801109   -3.05158429065012    0.90490476747623
C         0.47814398930823   -3.93712898849956    1.95202249356508
C         1.47344131006455   -4.89424757834097    1.88951720144139
C         2.29476519392203   -4.97342998792918    0.76463873543646
O         3.30984797532252   -5.84249123979642    0.60080281928558
C         3.59259940308378   -6.77287661893781    1.63210432272299
C         2.04938961845283   -4.10298934365551   -0.30160878098086
C         1.03013531465343   -3.16744514538235   -0.25754770361348
C         0.78397172269290   -2.38772271704732   -1.50845265166605
O         1.64935874631309   -2.09889439884504   -2.29917588164665
O        -0.52066012061192   -2.18097802561716   -1.71376083304066
C        -0.87565413470590   -1.46678691499894   -2.89457569251406
N        -2.34879039009056   -0.01963992585991    1.04979152344668
C        -3.18411736594806    3.42887852096836    1.80916460920067
C        -2.79252121695938    4.74382861669074    1.66006558688329
H        -2.41109632419556    8.98582174208055   -0.17576297882384
H        -0.96370979706521    8.98304647168679    0.85652316166288
H        -2.57728202025156    9.28198006802649    1.58120823148750
H        -0.48618985811145    4.35049851505314   -0.77456495319905
H        -1.13876666236563    1.98365101363971   -0.47133384709432
H        -5.13532448511465    1.81933936114076    0.86785114260802
H        -6.15909916328250   -0.41247672969473    0.48077538966086
H        -4.63164657787080   -2.38919685116522    0.28722566235787
H        -2.23685872364274   -3.27006036185514    0.28380130893564
H        -0.15776334416499   -3.88383667561157    2.82125919628682
H         1.60095999133180   -5.56988690300712    2.71910963039246
H         2.74248259754621   -7.43658601989695    1.80933944135559
H         4.43728029072528   -7.35569843871347    1.27092123406631
H         3.87143859257715   -6.26471134995055    2.55855943807485
H         2.65558222426817   -4.17780176264612   -1.19042394309030
H        -0.59714891191011   -0.41740299236661   -2.78224937961754
H        -0.35477048538661   -1.88096733965934   -3.75953265942835
H        -1.95114381222984   -1.57255269090196   -3.00111983520408
H        -3.95791719485646    3.18201476724298    2.52054650598740
H        -3.24836061596860    5.52050138752676    2.25244163654097
Cl        0.69667195444697    0.23869609424279   -0.30254890102016
