77
 energy: -109.977342721101 gnorm: 0.000385131234 xtb: 6.4.1 (afa7bdf)
Ir       -0.47356804133169   -0.58446177811608    2.11403430823093
C        -2.77459150210794    1.11405723195049    4.02772880754248
C        -1.42553077550557    0.50541531783367    3.86260591500052
C        -1.05757427542874   -0.82674190219181    4.26361287635479
C         0.37873502628000   -0.92252554180485    4.20909879245297
C         1.19622866388593   -2.01128512864542    4.81497291762039
C         0.88211954506758    0.29448553448109    3.67369415283049
C        -0.24484957835844    1.18410778326415    3.45091174430015
C        -0.14109347774998    2.62199029470141    3.14698487562197
C         0.50613993871487    3.45904732254228    4.05347234171640
C         0.58547059884881    4.81698783381210    3.81819801249452
C         0.03626437910046    5.37591067267620    2.66550797623965
C         0.13025726747556    6.82170678125241    2.41157291272873
C         0.43815747009118    7.29945988428066    1.13936000823003
C         0.53243664460767    8.65846132154884    0.90220631783379
C         0.31305106711999    9.56205925211437    1.92935165361973
C         0.00328343605495    9.09771176434023    3.19744753830975
C        -0.08407803493590    7.73880713261943    3.43828390404899
C        -0.59835761787422    4.53249275272333    1.75631101145974
C        -0.69267634324203    3.17599601458773    1.99669850195953
C         2.31369603078785    0.69299718611611    3.56927323198998
C        -1.97016661136261   -1.80086972146055    4.92825993662444
H        -2.95766258230846    1.26238532510766    5.09287098967217
H        -3.56150330354113    0.46651852241837    3.64704069257277
H        -2.82428244869577    2.08472862346299    3.54004822672410
H         1.37604156225860   -1.76190711202643    5.86188647854965
H         2.16396274253660   -2.10055524407346    4.32829721186836
H         0.67900689270612   -2.96680796285745    4.78884920720628
H         0.93494420502182    3.04394213298382    4.95295483477696
H         1.09819514212673    5.45196556739747    4.52542199866664
H         0.62667624549541    6.60126116179768    0.33672903902328
H         0.77995447674825    9.01602403456912   -0.08699151134686
H         0.38396817709174   10.62357276564665    1.74236731231576
H        -0.17191500796007    9.79820444097523    4.00125661067557
H        -0.33958738459837    7.38532669067132    4.42675339748741
H        -1.03500119587070    4.94824349149070    0.86041497517406
H        -1.16325200579509    2.53508224935921    1.26650458564652
H         2.94209020365582   -0.14911181128081    3.29221195791252
H         2.43676642631390    1.48143583770908    2.83100432435323
H         2.65757840658734    1.06889926028918    4.53356330846097
H        -2.98248153389143   -1.71312026244285    4.54425689941237
H        -1.62739316972037   -2.82227901276228    4.78993814037589
H        -1.99500505687402   -1.59446997866465    5.99899176029835
C        -0.97393587480517   -2.61101595863503    0.18427373160489
N        -0.21651774349855   -2.39057412890248    1.20645730018390
C         0.78169778769176   -3.39409385874535    1.51911160916170
C         2.01207960432407   -3.31569455029519    0.59944182878689
C         2.99450904298525   -2.22110344476531    1.02549801567848
C         4.12106486045354   -2.12194372617023    0.03510979416359
C         5.27848432514905   -2.87373549768622    0.19108490675877
C         6.29649501726878   -2.80203590060280   -0.74421315190454
C         6.16621274297925   -1.97860271677203   -1.85004558851139
C         5.01481018444730   -1.22586890777433   -2.01421995045545
C         3.99904807570114   -1.29905975424111   -1.07772287374933
C        -1.98956072961264   -1.64457681697092   -0.11472463044461
C        -2.85103898804264   -1.71396291054865   -1.21002700740665
C        -3.79965429446968   -0.72347665325801   -1.38095569040663
C        -3.86196104343118    0.30681583387609   -0.44895805219703
C        -2.97150830809587    0.31530361466894    0.61034779172398
N        -2.05529205150805   -0.63312232915866    0.78480328187092
H        -0.86974571125560   -3.50394461115863   -0.42263900207336
H         1.09941410623598   -3.26866717827341    2.55235705771714
H         0.32460204833316   -4.38152036057091    1.40639455072221
H         2.52100002851832   -4.28035879906851    0.62111681356842
H         1.68996880292758   -3.12668058414145   -0.42548959643633
H         2.46695100631950   -1.26802112804542    1.06828564294137
H         3.39475771365397   -2.45939737816675    2.01264198673625
H         5.38928958645828   -3.51813179674878    1.05204497489357
H         7.19421708741556   -3.38889938378845   -0.61152710408227
H         6.96017890317144   -1.92178391705424   -2.58081671242587
H         4.91157222602374   -0.57879172490472   -2.87373509312187
H         3.10442245743196   -0.70632867453196   -1.20349727632589
H        -2.75790491911050   -2.53022519669741   -1.90804740060958
H        -4.47683884939021   -0.74804513085658   -2.22007639124806
H        -4.59071351637826    1.09571094590349   -0.53827916201874
H        -3.00271473217811    1.10738611762396    1.34294519743094
Cl        0.64765655277720    0.40522977794861    0.25547802242597
