84
 energy: -123.641591826991 gnorm: 0.000374784570 xtb: 6.4.1 (afa7bdf)
Ir       -0.64327697329410   -0.31384234828730    2.26040547435646
C        -2.88190871111998    1.47080609028952    4.17398092436065
C        -1.54255790582143    0.84503255600609    3.99367597915893
C        -1.17577246323771   -0.47800466991107    4.42742442824347
C         0.25692664876568   -0.58834701602947    4.34113918140990
C         1.08181200877188   -1.66230687568185    4.96318946778436
C         0.75677262771315    0.60511839123243    3.74998642036546
C        -0.36742106778971    1.50068712493793    3.53474745258524
C        -0.26130311039434    2.92497007442844    3.17832025036462
C         0.46483041354028    3.77919679034459    4.00591919157687
C         0.54675360488919    5.12746470006688    3.72088944720023
C        -0.07590819482822    5.65810100224428    2.59277658648023
C         0.02154381857340    7.09280640134679    2.28399381344718
C         0.25469469947089    7.52171996707130    0.97895084356894
C         0.35061728529685    8.87019178790449    0.68829545417418
C         0.20719253216649    9.81162422882247    1.69466926305087
C        -0.02786052056921    9.39578998108435    2.99522297511187
C        -0.11659795229822    8.04741482594807    3.28926343825923
C        -0.78771219062426    4.79736298188496    1.76033751908600
C        -0.88817727420686    3.45197899869470    2.05360933015187
C         2.19083093009690    0.98318843845438    3.60133894003307
C        -2.07942071359013   -1.42403583726878    5.14360384763967
H        -3.03872877069927    1.65208425906982    5.23831797490785
H        -3.68358647299321    0.82047799051465    3.83045245515707
H        -2.93455336848991    2.42613655044852    3.65733789924230
H         1.28110062734129   -1.38277069654342    5.99900206536952
H         2.04052609778746   -1.76850319108732    4.46227090810760
H         0.56124512369424   -2.61626538203162    4.97390393296090
H         0.95327546991188    3.38725278912574    4.88513694510784
H         1.11965035360883    5.77618179955894    4.36687182583463
H         0.38389418898568    6.79232458245779    0.19234975325962
H         0.53993700315404    9.18911434124153   -0.32667958101791
H         0.27969253787095   10.86505018042501    1.46667346969787
H        -0.14296849266365   10.12645355512708    3.78277780954779
H        -0.31388092240076    7.73138110018522    4.30350814520734
H        -1.27660479312768    5.19161051172888    0.88207663731535
H        -1.42429358123396    2.79716302431077    1.38331641068997
H         2.79444718016486    0.13696061852158    3.28433040012417
H         2.30127265062858    1.78327367181726    2.87384779688287
H         2.57550986537063    1.33133107604397    4.56051105283023
H        -3.10255137865601   -1.32882795816128    4.79149359858859
H        -1.75635122104075   -2.45305565431592    5.01417869841107
H        -2.06493378815226   -1.19643083084573    6.21012164046687
C        -1.18417365251697   -2.42189418645604    0.43072517118001
N        -0.38621527775195   -2.15018829888018    1.41090379240771
C         0.64040364619683   -3.12618154926795    1.71853159594258
C         1.82615196822939   -3.07041086924533    0.74107290274816
C         2.80461612721371   -1.94114281651232    1.07563695408332
C         3.89143003434664   -1.86745971345117    0.04003639470624
C         5.06627416620314   -2.59389955758260    0.18519737509618
C         6.05081590625972   -2.54339576846443   -0.78652965162686
C         5.86894301373051   -1.76678036587669   -1.91851956735813
C         4.69927260721194   -1.04064676821730   -2.07287059356094
C         3.71693772440572   -1.09264775393070   -1.09998314162170
C        -2.22520441949792   -1.48969378565135    0.13685919281464
C        -3.13559897137529   -1.61429272156550   -0.91759392356599
C        -4.10691627573465   -0.65717497026347   -1.09171662035927
C        -4.16507916855344    0.42578313814389   -0.19876790868682
C        -5.16723757796347    1.45270561403794   -0.29941315904389
C        -6.20929968853456    1.63330794120441   -1.18552443732280
C        -6.86583759394774    2.81403122485046   -0.79003327412470
C        -6.18726406634567    3.27319305400557    0.30319238298031
O        -5.16776934402171    2.46450321411147    0.60542873196386
C        -3.20975768519433    0.48210157519303    0.82394597752294
N        -2.27535923467515   -0.43789786437705    0.99283605770601
H        -1.09044875014373   -3.33745774241011   -0.14333158764923
H         0.19354641523649   -4.12369786706475    1.67105341340728
H         1.00362205064940   -2.95205120079197    2.72946522289779
H         2.35354172182547   -4.02456933500079    0.78180736284201
H         1.45524112915765   -2.93166866123797   -0.27529962611716
H         2.26040980836776   -0.99668008995906    1.09582799780791
H         3.24662712935160   -2.12694707719124    2.05634926197827
H         5.21701628856476   -3.20102107151907    1.06689425948403
H         6.96272539946353   -3.10964207275897   -0.66115075463929
H         6.63771226936391   -1.72499438001434   -2.67684339364923
H         4.55567117018834   -0.43062212974721   -2.95348029537493
H         2.80813569652095   -0.52011799810273   -1.21753279421780
H        -3.05658153172921   -2.45601643722500   -1.58637084326456
H        -4.81420422337717   -0.73286604614063   -1.90061799005614
H        -6.47379848823189    1.00760117748038   -2.01223267728893
H        -7.72200061576926    3.26085793190474   -1.25085908301318
H        -6.33425247843418    4.13467148975038    0.92437524402303
H        -3.23254718914202    1.30909855762951    1.51744030422245
Cl        0.38620815984618    0.62568024954015    0.32459265960764
