64
 energy: -92.273300177778 gnorm: 0.000450949248 xtb: 6.4.1 (afa7bdf)
Ir       -0.54717902596954   -0.53999601465263    1.56452705084570
C        -2.15792668670911    1.39187718611748    3.90883464173591
C        -0.91899032052883    0.72933007140339    3.40895864843538
C        -0.55688500069274   -0.61530694608944    3.78505035101684
C        -1.33031921229361   -1.47867877201953    4.72276048514355
C         0.80198355354862   -0.84558226118523    3.36957754135012
C         1.63620754101608   -2.00434126705907    3.79322699388342
C         1.22712193463756    0.29024640938564    2.63249506623769
C         2.60389774735584    0.54012065021937    2.11631288525018
C         0.15370768370523    1.27986028613209    2.65147396305650
C         0.35288450129242    2.69953519396794    2.19244446182151
C        -0.72766970035686    3.22639797646212    1.24151612169511
C        -0.36647625554348    4.63423693243218    0.77579665372520
C        -0.22052059749250    5.57208237999261    1.97180465164387
C         0.83769356023980    5.04537043705770    2.93770425007484
C         0.48853176552814    3.63492138504298    3.40512491038247
H        -3.02159175594599    0.73768414960797    3.81101950168919
H        -2.36013570553878    2.32639507643129    3.39853960630410
H        -2.02612066430658    1.60472495644811    4.97066923098417
H        -1.06810287533847   -2.52544653294974    4.59852990257833
H        -1.09606723520977   -1.19155049341698    5.74865193588483
H        -2.40050074536957   -1.36241226716557    4.57656100518877
H         1.04883978398391   -2.91633310877447    3.86039833154449
H         2.46394564584657   -2.17406337437595    3.11122071227554
H         2.04612939404255   -1.79265296224141    4.78141068186732
H         3.19870342485567   -0.36807396045868    2.13566326495904
H         2.57413762344919    0.91530552736905    1.09513202489121
H         3.09560271041661    1.28754661284920    2.73888789315050
H         1.29716266235432    2.73365715911253    1.64089436026215
H        -1.69553277130985    3.26963421438700    1.74098898695940
H        -0.80597577670032    2.55888273360874    0.38182723964234
H        -1.14013134762564    5.00841775295325    0.10223645611984
H         0.57227875710618    4.60725436848219    0.21804744312961
H        -1.17863505357518    5.65426013268411    2.49075963541443
H         0.05569128531046    6.57092127173903    1.62827953287092
H         0.91634899996418    5.70837608113738    3.80188979217491
H         1.80896924840648    5.03604364728046    2.43759518287587
H        -0.44824818322269    3.66159773220128    3.96196793236358
H         1.26715555233065    3.26276480052049    4.07373483073723
Br        4.05519530014408   -6.30702842021497    1.20314020447616
C         2.58000444644612   -5.08297296511588    1.08882926388006
C         2.80090197215373   -3.78548361366623    0.64748175932528
C         1.74133834532324   -2.90301283348839    0.57325631578790
C         0.45625066655190   -3.32301381696997    0.91612569543703
N        -0.61180572740658   -2.42244804028104    0.81259775048266
C        -1.68900327667601   -2.76779831737715    0.18050975816661
C        -2.72617669335504   -1.78369724518639    0.09534118316405
C        -3.91536313053364   -1.94656225022855   -0.61720409624401
C        -4.81661952585812   -0.89995876591489   -0.66553238726302
C        -4.50103544130532    0.28317426349227   -0.00540890497652
C        -3.30354232126454    0.37626398831929    0.68215245108794
N        -2.43474646997917   -0.62911649106327    0.74584507520033
C         0.24678929752356   -4.63103745223899    1.35447107730223
C         1.31009705029972   -5.50791732072340    1.45132312024102
H         3.79310834377457   -3.47173855596293    0.36523887494678
H         1.88694522277499   -1.89578394704368    0.21415937369892
H        -1.78452601705434   -3.73189193070091   -0.30507394342569
H        -4.10604575180044   -2.87789990424454   -1.12528523239548
H        -5.74287320237886   -0.99610485061439   -1.20964640025255
H        -5.17309286469632    1.12544995739572   -0.02231310090528
H        -3.02906950339847    1.28565195169857    1.19403872919314
H        -0.74236569903887   -4.95057269181155    1.64305176528773
H         1.15407677480303   -6.51605442088418    1.79990682548371
Cl        0.14608974328142    0.14721950817888   -0.62119831787196
