66
 energy: -116.324294791236 gnorm: 0.000304159601 xtb: 6.4.1 (afa7bdf)
Ir       -0.44905326014995   -1.08593163420362    1.32491325074982
C        -1.76831494187935    0.75729542366086    3.87292387179318
C        -0.58848913056625    0.07284824984422    3.27584421481616
C        -0.20432447554687   -1.28829266098978    3.53718381072014
C        -0.88085471407345   -2.20353875419977    4.49841684566071
C         1.08802645023822   -1.50404519138517    2.94474519820855
C         1.97028165496434   -2.67337080161888    3.20424079406732
C         1.44605593622504   -0.33336611910275    2.21629472891649
C         2.77793427709088   -0.06543514581733    1.60752001420770
C         0.39881008545284    0.65962887246392    2.43086579349276
C         0.53025875863060    2.09292495160006    2.11637155999095
C         0.50692567842542    3.01505536707276    3.16209935012571
C         0.68436932239665    4.35593221174420    2.87879022802713
F         0.66508223667279    5.23970184926719    3.89753496912172
C         0.88046543422193    4.82699295170909    1.59290377018663
C         0.89521115368036    3.88633056937610    0.57760342920193
F         1.07816797246409    4.31018204228073   -0.68928867517961
C         0.72643219556274    2.53443809444020    0.81046679311594
H        -1.93420988434057    1.72578964857951    3.40882585914503
H        -1.58426398249678    0.91204041287385    4.93651745815150
H        -2.66496258291803    0.14722732864663    3.78547683415478
H        -0.71479225208626   -3.24401948991157    4.23278906865287
H        -0.47157876243539   -2.04084221372682    5.49602146204086
H        -1.94968504948572   -2.01524263913210    4.53566833507830
H         2.50091471160715   -2.50207376384571    4.14152365576200
H         1.39876518913983   -3.59203355220870    3.30446880529077
H         2.70507758502803   -2.79496905454292    2.41457352806420
H         3.15381158979127   -0.93948217208891    1.08177492245748
H         2.72945375240385    0.76901698497526    0.91477481754962
H         3.48494919747849    0.18258744608397    2.39988393312521
H         0.38016027561752    2.70092286473775    4.18495291998076
H         1.01655359009128    5.87636643541845    1.39155237686403
H         0.71931334931984    1.84127831386611   -0.01648348192120
C         4.96332865142261   -4.74599988468407   -0.60836189758613
O         3.83823234352330   -3.89011745196994   -0.50004173141779
C         2.67847560756165   -4.38560661286864   -0.02899328746916
C         2.48257482444963   -5.69579829441210    0.41323419756050
C         1.24652342136246   -6.08773053993162    0.89896697375693
C         0.20055398254743   -5.19002044954451    0.93324579049825
F        -0.99621309824281   -5.57487027143982    1.43494285268355
C         0.36744204496794   -3.87115712676375    0.49671205900929
N        -0.67957780247633   -2.94064997122466    0.53932133368909
C        -1.84412415920371   -3.23783232406971    0.05955367538428
C        -2.84602457647544   -2.21952230580909    0.12178908365821
C        -4.12248220955310   -2.33686751118543   -0.43787379630698
C        -4.96949598190913   -1.25560436753104   -0.38934042938957
Br       -6.71488246994019   -1.32247776863159   -1.13041080499717
C        -4.54225137117861   -0.04864866615010    0.21229223453157
O        -5.40014923119417    0.95877874151639    0.21351700312963
C        -5.03312180293715    2.21408693149208    0.76944650047384
C        -3.25642599281773   -0.03000558896817    0.76264629780204
N        -2.44214778482489   -1.07879882171837    0.72563159856802
C         1.61341640439837   -3.48283011916027    0.02500079218838
H         5.75608192263055   -4.12736000319462   -1.02323450145825
H         4.76296029501541   -5.58108346586807   -1.28366006112972
H         5.26849048368731   -5.12314454261301    0.37080501854276
H         3.28184754015154   -6.41690227361442    0.38634194757541
H         1.08663268799104   -7.09427744098869    1.25025415642558
H        -2.04961277368810   -4.19033244565743   -0.41449435605131
H        -4.42640917071666   -3.25842857909273   -0.90705279411523
H        -4.82987468853019    2.12216533792954    1.83786234975995
H        -4.16905987158475    2.63175056185012    0.24983522690391
H        -5.89770285667373    2.85629021626078    0.61636686019881
H        -2.87174128847482    0.86093154085280    1.23465434706437
H         1.75267327916470   -2.47809365809321   -0.34218850705441
Cl       -0.05512971896955   -0.39186867056223   -0.92040757403519
