60
 energy: -103.175127773776 gnorm: 0.000780183410 xtb: 6.4.1 (afa7bdf)
Ir       -0.80280263238441   -1.08418295104409    1.22962876723467
C        -1.82393986954617    1.46863762921001    3.29231705608384
C        -0.76297467482978    0.54620865287996    2.79939696064243
C        -0.43762107817022   -0.72977465537334    3.39805909340644
C        -1.10251856580994   -1.30167072146094    4.60227905119093
C         0.80105370221388   -1.18409238430339    2.82497040964958
C         1.60384838552136   -2.33778961885342    3.31402379435264
C         1.17665416490991   -0.26166425436926    1.80341429186617
C         2.46697876860251   -0.22797798783120    1.05883281487284
C         0.21501986782636    0.82971289621640    1.80942953523411
C         0.38207499994760    2.09285234327426    1.04103833495779
H        -1.42524097522507    2.03158563566156    4.13740527318151
H        -2.69707346288143    0.92265492336983    3.63959422187173
H        -2.11935007278549    2.18240321217355    2.52811898470671
H        -2.17597847493229   -1.13550231354263    4.57765088820415
H        -0.91147356604249   -2.36700552806536    4.69046296096119
H        -0.70740758163109   -0.81152955198733    5.49300992710161
H         0.96796684486718   -3.13849471909324    3.68068255967337
H         2.25257080883696   -2.73128985473248    2.53661312059248
H         2.23054160072203   -1.99893562379976    4.13976581026511
H         2.30679447508066    0.06262623239257    0.02319131203906
H         2.96666069076549   -1.19141185541627    1.08628126692601
H         3.12196873943537    0.51391654815745    1.51580960612937
H        -0.52190487849506    2.69446422825634    1.05697982369121
H         0.64301985905575    1.88027012255344    0.00627498482439
H         1.19467052421633    2.67249373839903    1.48082306991912
C        -8.97493845733211   -1.34043364790029   -0.76282368879470
O        -7.62351279091648   -1.15348273152807   -0.34144855117833
C        -6.80510114297522   -2.18880811225019   -0.46257298430786
O        -7.11952537107626   -3.27136848572303   -0.89722301144520
C        -5.41889488228669   -1.86818671281305    0.00532529663066
C        -5.05755510907010   -0.60462664031997    0.48014593064339
C        -3.75596120740645   -0.39330761268400    0.89445849652162
N        -2.82445607518204   -1.34447928704215    0.86769640028450
C        -3.15955340876375   -2.57086733726961    0.38988709691172
C        -2.06483150049803   -3.49137821759086    0.33194643653077
N        -0.90359032191798   -3.03575208084326    0.68369811528039
C         0.22484084090134   -3.86630791736862    0.62007132146076
C         1.34940482724730   -3.42829475191031   -0.07897877717768
C         2.46772795897286   -4.23403308667817   -0.15652211549014
C         2.47123121415254   -5.47226036445971    0.48002077208004
C         3.70245473612568   -6.32724920414378    0.37042920774177
F         3.90302730612317   -6.76865189276880   -0.88813682409567
F         3.66900417807065   -7.41620325655942    1.15117189748754
F         4.82023763038707   -5.65324718874562    0.70595972674004
C         1.35682822026599   -5.91145521539378    1.18332970416725
C         0.23081615345635   -5.11094678350259    1.24833376234146
C        -4.45194076613920   -2.86077062481701   -0.04419514724237
H        -9.44047099054769   -0.36016816200721   -0.71648448115768
H        -9.00172760251004   -1.73722995149955   -1.77890671419612
H        -9.48141920347355   -2.04043998037196   -0.09645324143508
H        -5.78265202515993    0.19109045774067    0.52324987078450
H        -3.44838290292996    0.57473186212380    1.26027317957598
H        -2.19776294487403   -4.49946782575553   -0.04303584647995
H         1.31857539343975   -2.47417062673801   -0.58139693916526
H         3.33778898769628   -3.90972104658669   -0.70623847494295
H         1.36981916255870   -6.87172066899321    1.67415638409045
H        -0.63446955671501   -5.44196363069827    1.80089949057558
H        -4.70410965462847   -3.83822513551236   -0.42490401211715
Cl       -0.67639329426058   -0.57656928206045   -1.10018520017436
