61
 energy: -100.800890974764 gnorm: 0.000585228802 xtb: 6.4.1 (afa7bdf)
Ir       -0.32730972672608   -0.86105202824428    1.49550623829015
C        -1.98869686980612    0.54458349909433    4.07595833115099
C        -0.68493480348634    0.14818352170224    3.47695292896273
C        -0.01110694785283   -1.09277782598155    3.70707198315841
C        -0.46203542403303   -2.17055855687113    4.63080253935766
C         1.28262877793761   -1.02090098131171    3.07614585379105
C         2.40859280935023   -1.96942756464436    3.30579790081179
C         1.39399610211569    0.24897276408968    2.43338400828921
C         2.63787477076002    0.79650902886110    1.82968559871347
C         0.15725507643602    0.96584077744850    2.64757901518068
C        -0.04748722274692    2.38694061038225    2.32713853186356
C        -0.34201610299001    3.29103205032450    3.34622040618771
C        -0.47788062625171    4.63085118038992    3.03525280680195
F        -0.75645746372194    5.49959450704107    4.02866338819248
C        -0.33446939409116    5.11737533227216    1.74793291822757
C        -0.04561478082633    4.19378252088634    0.75830489363480
F         0.09749203136452    4.62997373002097   -0.50969483625866
C         0.09882653273695    2.84446279692733    1.01866748580213
H        -2.38804027039693    1.43369171458494    3.59678492750544
H        -1.84228415555976    0.76047735459920    5.13481566545235
H        -2.71777592748388   -0.25931772440145    4.00540719235449
H        -0.08221500916356   -3.13908610905453    4.31656014549312
H        -0.07592448329690   -1.96524398182460    5.62979721924332
H        -1.54564426603485   -2.21198320135826    4.68965387722542
H         2.90194355010291   -1.70115652088187    4.24107770972311
H         2.05632680851025   -2.99321817703519    3.39075135288982
H         3.14039506361844   -1.90998286045435    2.50642516156343
H         2.98579562092880    0.17102882873400    1.01016630948860
H         2.47703309396705    1.80130411765148    1.45042195435095
H         3.41939197838250    0.82271570100792    2.58877864521260
H        -0.43801088500634    2.97112619910039    4.37050615918323
H        -0.43984755928002    6.16623897468417    1.52641404548189
H         0.30694487746355    2.15931123842609    0.21110457804898
C         3.22833370730974   -6.89012148008590    1.30315990100689
C         2.21000663372812   -5.80325511712996    1.20622370156413
C         2.56034757598924   -4.54126348680009    0.72769995600767
C         1.62605397017329   -3.53192255800578    0.62884475720257
C         0.29803607537889   -3.77507093909663    0.98385587687585
N        -0.64470029088833   -2.75261187742435    0.84460182290285
C        -1.78894389838701   -2.99609922747290    0.28343354072442
C        -2.69818548953027   -1.89872432151351    0.15736181936494
C        -3.93037152916358   -1.95448005378311   -0.50036869253231
C        -4.69817940697647   -0.81297623232131   -0.59453479172170
C        -4.20203337333574    0.36322062191515   -0.03230567981786
Br       -5.20532126348105    1.97955288970054   -0.11692280273552
C        -2.96904722292266    0.35808005010749    0.60635207054071
N        -2.24188406042744   -0.74584228281428    0.70830759376414
C        -0.06791382281134   -5.03770621786843    1.45603611452561
C         0.88478067094364   -6.02904181626121    1.57362525791483
H         3.29028570132340   -7.41752019486087    0.35079735903337
H         2.96034095762787   -7.61386486830592    2.06825840357953
H         4.21294852882499   -6.48440702272780    1.52090140378480
H         3.57986651567607   -4.35307779427559    0.42789164180469
H         1.89023205462606   -2.56291958346739    0.23440702863000
H        -2.03057760075398   -3.97281531191863   -0.11817125404580
H        -4.26508000449286   -2.88385852479717   -0.93267545267551
H        -5.65410702370152   -0.82041301826795   -1.09370444073790
H        -2.56640943303679    1.26432288560286    1.03426571596678
H        -1.08679988103497   -5.22212821720138    1.76197325960552
H         0.59686457520341   -6.99719918848327    1.95439684225831
Cl        0.36467215926979   -0.34190002877487   -0.72308988840009
