70
 energy: -106.666347972315 gnorm: 0.000424197089 xtb: 6.4.1 (afa7bdf)
Ir       -0.47641831912069   -0.74450467023679    1.59064045394045
C        -2.45440361436028    1.55232815722254    3.40057477174853
C        -1.23483102800915    0.72534771774505    3.19823578592001
C        -1.13490093543200   -0.62626037378269    3.72002608798327
C        -2.23491577700656   -1.34990446517310    4.41895756795605
C         0.23674350788400   -1.00313087583514    3.72834136006753
C         0.79809179377975   -2.15874992548258    4.47490535922087
C         0.97651283761501    0.04029737920211    3.06113621423355
C         2.46221914183031    0.17758635799674    3.05882838107315
C         0.05726364694307    1.13615350647849    2.78096914037494
C         0.53654247242633    2.50518260262408    2.38897487082538
C        -0.18104614927647    3.14769029107179    1.19863811494102
C         0.47845808431212    4.48204829263255    0.86288895010316
C         0.43052236319545    5.42044833604963    2.06623074252649
C         1.11281721792239    4.77969700993824    3.27188905849379
C         0.46337008194232    3.44057191902408    3.60916224121309
H        -3.36001792529322    0.99953423086777    3.16393498767219
H        -2.43728628498008    2.46507167312658    2.81786374069371
H        -2.50120958679626    1.81557842165506    4.45889963580891
H        -2.07392103945740   -2.42424444334587    4.39894835911134
H        -2.26255576184876   -1.03302597616348    5.46227964761926
H        -3.20179860269002   -1.12746742668772    3.97611584333045
H         0.15700381184668   -3.03379609059779    4.40153764735735
H         1.80386403979595   -2.40444148782001    4.14780518651632
H         0.85217655949044   -1.87889622631041    5.52825189276314
H         2.95124087243933   -0.76679121480148    3.27962577060327
H         2.82650413191473    0.55646147999929    2.10629349844869
H         2.74538218717162    0.89175698040052    3.83310398661598
H         1.58909502889489    2.41363126303059    2.10531762032598
H        -1.23170641428674    3.32655490648961    1.42363228949681
H        -0.12501781223319    2.47857259655757    0.34007818700620
H        -0.03427597414648    4.93892851522193    0.01440072947792
H         1.51812538662835    4.31605879208076    0.57111172344333
H        -0.61060012840295    5.64215283677230    2.31163609649996
H         0.92141153867790    6.36434738422231    1.82153641216965
H         1.04536728390848    5.44530616024843    4.13482763589322
H         2.17175214622341    4.62910289652137    3.04983765548600
H        -0.57754593751148    3.60591917582323    3.88592284528394
H         0.97290859562029    2.98391292193351    4.45982062640800
C         6.34716371371931   -3.69688865305309    2.95045905391134
O         5.29225742207292   -3.90669287686612    2.00838877816790
C         4.08561068048303   -3.43893736170306    2.28308378291313
O         3.78763461518903   -2.84673448306085    3.29548471119369
C         3.12047654295755   -3.72825351961565    1.16201122467061
C         1.73452395169890   -4.27337478883019    1.55961549420263
C         1.10230396229877   -3.30875651407113    0.53171760231692
N        -0.14104916605623   -2.65331785622294    0.85005614797078
C        -1.21219664931261   -3.30249485907474    0.54193992013342
C        -2.46626425225221   -2.61014251652901    0.49855705385871
N        -2.37391267127977   -1.26621432862242    0.62247391769403
C        -3.42592280792082   -0.52906747352634    0.28588523601641
Br       -3.19578801064158    1.33217505272727    0.16506752261421
C        -4.66371058805733   -1.07185242022111   -0.04643345745885
C        -4.80881743508784   -2.44948359166548   -0.07862100959569
C        -3.68172577268511   -3.21617268779973    0.16373850290975
F        -3.73309394316761   -4.54689120080207    0.06925869599364
C         2.40337161033143   -2.50271828893608    0.55105587015045
H         5.94352772158795   -3.29456571455879    3.88015146046070
H         7.06052296372002   -2.99716359851667    2.51564163396528
H         6.82612088108231   -4.65871575592074    3.12349014674204
H         3.62029902611917   -4.33822352764009    0.41167984311058
H         1.56126657474738   -5.33318737576676    1.39734967483023
H         1.48373787889060   -4.00181024216838    2.58021439309304
H         0.98556545381437   -3.81693549412823   -0.43001011219659
H        -1.17873290534722   -4.32630747522163    0.18006364145123
H        -5.48786706650063   -0.41855813599717   -0.28456091732271
H        -5.74984929692881   -2.91725255354702   -0.32137032297645
H         2.76228765997238   -2.14789752163613   -0.40978358028354
H         2.35060607281776   -1.67466438657599    1.25039274889076
Cl        0.30957839424839   -0.03837447770459   -0.53365477629568
