81
 energy: -124.724485056952 gnorm: 0.000405166046 xtb: 6.4.1 (afa7bdf)
Ir       -0.69446915031366   -0.69196734158197    1.34592436047886
C        -2.08374638979631    1.09995193447659    3.93423353718017
C        -0.88760940143432    0.45949287079364    3.31884264400317
C        -0.47892212496778   -0.90028923479214    3.54408981523326
C         0.83342897250970   -1.07010860459024    2.97109836056713
C         1.74019416678868   -2.22286516921693    3.23049083713996
C         1.16727997093091    0.12403101181461    2.27802298643573
C         0.09473773977212    1.08555134675228    2.49998108748166
C         0.21140840537798    2.52786860963012    2.23027239293816
C         0.19230284041859    3.41643396268693    3.30463471834886
C         0.37769944553257    4.76834749725515    3.09712784921677
C         0.58448757856755    5.27373320652597    1.81463172379661
C         0.80813688322903    6.71128306916603    1.59970799446255
C         1.77956007203204    7.14747827784206    0.70076689980661
C         2.00172412452839    8.49819246905577    0.50509319109037
C         1.25306576483300    9.43521374563331    1.19873099118565
C         0.28175478830765    9.01263255351142    2.09173817699248
C         0.06280517425758    7.66224496579517    2.29390035041187
C         0.58486076909095    4.38259865017071    0.74270836881639
C         0.40189195829178    3.02916945894947    0.94495816095262
C         2.48510897805608    0.45827988724968    1.66928829586292
C        -1.14656599857627   -1.84615588718062    4.48425855852769
H        -1.91980981677052    1.19135190429159    5.00831529176119
H        -2.97629004235238    0.49539702957004    3.78853622253071
H        -2.25499899777647    2.08959304779245    3.52107459600213
H         2.27880207355228   -2.03586642913829    4.16032318570423
H         2.46981376781428   -2.34273222782937    2.43492594942333
H         1.18726318535690   -3.15150271722582    3.34151574396245
H         0.06494862849793    3.04106280834440    4.30838694201515
H         0.39004284731127    5.43982999259259    3.94255464617108
H         2.37891362983538    6.42315721348071    0.16830941270971
H         2.76351374434366    8.82233848741154   -0.18936707015197
H         1.42612838257027   10.49013319861352    1.04371647944419
H        -0.30685291329460    9.74005725450258    2.63205452536210
H        -0.70608548330567    7.34202460070266    2.98186963111919
H         0.71720953054659    4.75680230837276   -0.26134084124557
H         0.38684950004551    2.35615990016364    0.10076202730036
H         3.03111681689254   -0.43964317971910    1.39502516879773
H         2.35815363449343    1.07956766381363    0.78683766185626
H         3.07874617191577    1.01924263905202    2.39199829831865
H        -2.22580353546730   -1.72136016473447    4.46294877489979
H        -0.90258173382852   -2.87720235500254    4.24420039831588
H        -0.80226762104613   -1.64495667454616    5.49941651016808
C        -8.09250641941300    4.81472119285034    0.15709560533362
C        -7.51857774844534    3.40692419612901    0.14341230095579
O        -6.12572056676453    3.50370701426820    0.42363358802220
C        -5.37384877559449    2.40029145617366    0.46156047423658
C        -3.99699344818938    2.61545971378840    0.73858497662644
C        -3.12373261869446    1.57639576870493    0.83276266593242
C        -3.55699193310511    0.24579212204929    0.63968641704673
N        -2.68989485510826   -0.78418139885605    0.73628263295159
C        -3.09505911868963   -2.02014504598051    0.39439289513548
C        -2.05259295505595   -2.99494536958793    0.35534769854895
N        -0.85931501982489   -2.59848183594776    0.66908790389031
C         0.22360953519426   -3.48153194462052    0.57992433208694
C         1.41076064493119   -3.03970222158614   -0.00604411133574
C         2.48287780908755   -3.90056844440895   -0.13522042577498
C         2.36425048563960   -5.19385349642041    0.34757922460360
F         3.41179169375654   -6.03476284494189    0.23039089328749
C         1.20452765214396   -5.64790518085703    0.95384473559655
C         0.12831788371496   -4.78838711402096    1.06293846257818
C        -4.43036433781684   -2.30664244208697    0.04662896198478
C        -5.34790230950869   -1.29657592987477    0.03640666407038
C        -4.92958235985159    0.02607757363571    0.30792942461382
C        -5.81761081662662    1.10991505572032    0.24517068618597
H        -7.93721187800451    5.27297901392834    1.12968729112629
H        -7.60364808376656    5.42530632710437   -0.59709791287303
H        -9.15731213505636    4.77713400566750   -0.05216440718463
H        -7.66616787234030    2.94509990765158   -0.84049388005113
H        -8.00471494671476    2.78813876554409    0.90780115249299
H        -3.66774272930022    3.63399538357168    0.86515216877745
H        -2.07597881488141    1.76173917940627    1.00642775325088
H        -2.24496174265663   -4.00058617919211   -0.00029608364414
H         1.46451075350287   -2.03159529700773   -0.38759900365197
H         3.40125597814333   -3.58578771696746   -0.60402492097746
H         1.15443193958495   -6.65803436240896    1.32693239209846
H        -0.77701488400530   -5.12199988217757    1.54589993682233
H        -4.70038805440896   -3.32043899116529   -0.19892134732267
H        -6.38312731375352   -1.48595467931275   -0.20130214532288
H        -6.84789754564003    0.90389132901038    0.00473836376105
Cl       -0.23831942928275   -0.01090420824615   -0.89981521928999
