87
 energy: -129.395151569740 gnorm: 0.000525830359 xtb: 6.4.1 (afa7bdf)
Ir       -0.56791566942579   -0.47034067838577    1.28873956788250
C        -1.57932657814538    2.14159580049993    3.40060721248903
C        -0.54621624815072    1.19592311659954    2.88240318081816
C        -0.33668387781564   -0.11139596596075    3.47072380269732
C        -1.12406493222173   -0.69650122078525    4.59283566842257
C         0.91519079382696   -0.61527275056912    2.99872601476483
C         1.63630463271912   -1.78139990933940    3.57469314556152
C         1.39036719369651    0.27742364984211    1.99309067775382
C         2.72382210372140    0.20168135064779    1.32462472351686
C         0.50646137113598    1.43796635153044    1.96014038211811
C         0.91022959053082    2.72208281172140    1.28567701682503
C        -0.13892448235525    3.37177526228856    0.37834415107515
C         0.45900251632850    4.60394673137048   -0.29665300660189
C         0.93524602585973    5.61009647670626    0.74818240366270
C         1.96081277200730    4.96805559865876    1.67848266181031
C         1.37727620538856    3.72886017176272    2.35171824204299
H        -2.56515042421033    1.68129303996439    3.41460399576246
H        -1.62872308680345    3.05226233721641    2.81557097719902
H        -1.31849255707319    2.40238725862008    4.42711744731783
H        -0.63424772516288   -0.46892025489976    5.53996599613633
H        -2.13164665304322   -0.29261932085747    4.62013011863260
H        -1.18125223779056   -1.77824145485867    4.49245693951384
H         0.93619795807270   -2.54068728998783    3.91019213613039
H         2.32897342547183   -2.22218290926104    2.86331157579921
H         2.20570269514387   -1.43964027115176    4.44014235815709
H         3.12416172500089   -0.80635259351491    1.37983598236044
H         2.65158969407037    0.48867914940140    0.27803340824656
H         3.42012740468920    0.87867534527417    1.82009361218017
H         1.76985916438811    2.49511787518472    0.64845107151906
H        -1.01108675513037    3.68315711189318    0.95394815284480
H        -0.45333808987363    2.65326216399513   -0.38033750559469
H        -0.28726065070630    5.06595723735047   -0.94591553656174
H         1.30119016939941    4.30413045103190   -0.92406520120069
H         0.08190256606772    5.95945504483989    1.33426612576974
H         1.37554678912564    6.47870952749232    0.25447030348030
H         2.27268546723293    5.68527538932216    2.44042730429932
H         2.84575497500374    4.68910032992818    1.10217752709410
H         0.53594343292610    4.02100478876537    2.98038094698849
H         2.12964409921555    3.26466796678344    2.99198935071450
C        -6.38564667175693    4.80951523915888    1.60996301818785
C        -6.50362192335729    4.24125270624392    0.19944917385007
O        -6.68893652923844    2.83002778644352    0.19666963883839
C        -5.65731506376142    1.99403510914367    0.38421873834598
C        -4.30642304965514    2.38375284609253    0.54145627056802
C        -3.32495164189447    1.44934883617322    0.71586862295648
C        -3.61274284456234    0.07245409240333    0.73277892575889
N        -2.62297597363903   -0.83289041888203    0.89494969619204
C        -2.90651881371400   -2.13464790341638    0.74258914615343
C        -1.76902747390169   -2.99548032371066    0.74930793265513
N        -0.60680761265016   -2.44810343770168    0.90496017967133
C         0.54645837525840   -3.23379174004824    0.86661116830181
C         1.58338627269069   -2.86783137205721    0.01196866036653
C         2.71038494435213   -3.65323161488293   -0.12371069071343
C         2.83177667703568   -4.83914058165147    0.60520389240027
O         3.87511785930640   -5.68428775978781    0.54508797664387
C         4.94454192334424   -5.40288894727378   -0.34190478665290
C         1.80604758976017   -5.19537225229011    1.48858769776707
C         0.67282174213383   -4.41350254927123    1.62664598195937
C        -0.32912128219436   -4.77080896079957    2.67061972507732
O        -0.93963620750924   -3.95697435353779    3.33007904172321
O        -0.45038641147596   -6.08363195796530    2.80801476067725
C        -1.32359260571930   -6.56913266229172    3.82852106111593
C        -4.22090068310044   -2.60754660003389    0.53343328308857
C        -5.24948753581531   -1.71668237471961    0.46463157319951
C        -4.96937218586156   -0.33098763274212    0.53262418372741
C        -5.96074234646862    0.64051923911093    0.38300317290617
H        -6.29015170184776    5.89009833786925    1.55593250814927
H        -5.52002006185844    4.40281017074012    2.12669886532938
H        -7.27597669894453    4.56413402821571    2.18301589379295
H        -5.63966378286915    4.51623145206223   -0.41473572556744
H        -7.40557520257827    4.62619377093960   -0.28232735589546
H        -4.03377297437328    3.42597346169203    0.51043736116771
H        -2.29237271392734    1.74770492906696    0.79129468390632
H        -1.87648323392975   -4.05755585739301    0.55890985755798
H         1.47355681152936   -1.96761433396913   -0.57304637809687
H         3.48412365027455   -3.33974333598164   -0.80491198194873
H         4.59567842771537   -5.34299419899400   -1.37572834762475
H         5.63251683360258   -6.23933056821657   -0.23896906363699
H         5.45424816949698   -4.47636542825645   -0.06592194363463
H         1.91977834625892   -6.09336146912934    2.07340085263474
H        -1.65725448351084   -7.55157195476688    3.50506587546893
H        -0.77451671378593   -6.64660297748076    4.76813393949729
H        -2.16768318909423   -5.89031510517442    3.95818538850172
H        -4.38248938804799   -3.66848169276955    0.43595301615562
H        -6.26863972069210   -2.04325114770339    0.33043386546928
H        -6.98581427435780    0.34014582785112    0.23657040743523
Cl       -0.37683142983132   -0.07394903944148   -1.05278469503530
