74
 energy: -113.631728936839 gnorm: 0.000468529386 xtb: 6.4.1 (afa7bdf)
Ir       -1.05094517350807   -0.76525562838262    1.27297861520475
C        -2.08646585996323    1.64945922213028    3.60045939587303
C        -1.06468935584110    0.71214559138302    3.04952317351098
C        -0.97927506922589   -0.66618191518522    3.49220138093150
C        -1.88462423240929   -1.28032714757875    4.50521187096107
C         0.27383451866477   -1.19861279424432    3.05212538263305
C         0.88541914294965   -2.47135542880887    3.52116977188882
C         0.88236688471208   -0.22287452104816    2.20399525490290
C         2.26034227975872   -0.30315141635357    1.63875872315968
C         0.07198745601093    0.98970614697293    2.24757161995218
C         0.59531798417688    2.31490317440014    1.76383214641185
C        -0.34183488427594    3.12532696364771    0.86301711081011
C         0.37377352582885    4.38570151133538    0.38260969370221
C         0.81706516135898    5.23773535415092    1.56948150240877
C         1.72258345973873    4.43280250142695    2.49805015188310
C         1.01823232258184    3.16564358074560    2.97479160984978
H        -3.08991865393539    1.23889709469864    3.50952343955922
H        -2.06042215913995    2.61764072632732    3.11537253853524
H        -1.88163766697391    1.78829967685954    4.66285445373944
H        -1.83611615375274   -2.36475628107276    4.47078148088416
H        -1.57766307074264   -0.95864550385963    5.50112075545750
H        -2.91369295014147   -0.96665896506675    4.35256067341000
H         0.13168913868145   -3.22673630165031    3.72369900088385
H         1.59439488427167   -2.86750522940172    2.80025843311670
H         1.42025717089926   -2.27054649796399    4.45035292617125
H         2.59839999037736   -1.33313908286574    1.58303687778934
H         2.29691906196719    0.12500524604102    0.64001232755526
H         2.94805789599738    0.25336651336105    2.27596178240166
H         1.49352714987321    2.11191071135957    1.17355499950273
H        -1.23928641257820    3.42518953932327    1.40472760929132
H        -0.63241874488971    2.51814000920228    0.00451740065743
H        -0.29257518788949    4.96352200429486   -0.26073661376936
H         1.24649822472291    4.10752154727398   -0.21222956179870
H        -0.06145660757928    5.57817421458406    2.12280495972746
H         1.34642754683549    6.12351791323572    1.21294298956592
H         2.00469313871064    5.04066824426227    3.36031076916654
H         2.63849289301090    4.16550672093810    1.96616116470506
H         0.14020354701996    3.43930368567522    3.56021820315036
H         1.68578186962187    2.58914204069245    3.61785380346386
C         4.45019875009315   -4.22144660200052   -0.90160963159758
O         3.29507429206250   -3.41837203855909   -0.73603846697155
C         2.22052898530300   -3.92909622433069   -0.10966734628557
C         2.15900114220149   -5.20470379992123    0.45408334566061
C         0.99171310791173   -5.61693610694919    1.07931458520503
Cl        0.92860377693566   -7.20385337883401    1.78200177362020
C        -0.12255051345834   -4.80295624482073    1.15583967083929
C        -0.05397790350932   -3.52536491715817    0.59232745437314
N        -1.16467651369555   -2.67060589212984    0.64263111143281
C        -2.33840991787570   -3.13085676366391    0.34144216684596
C        -3.42853375882652   -2.20759094207182    0.35665595132325
C        -4.74457198786744   -2.57442137133047    0.00553603229512
C        -5.72092064572612   -1.62094073029054   -0.01097532371548
C        -5.37458467975669   -0.27551268346852    0.24991118663844
C        -6.31570637001852    0.76694845796438    0.17337130364235
C        -5.92246907661113    2.06673958644268    0.36959628874205
Cl       -7.07475302150965    3.35321463710618    0.26099669887268
C        -4.57670654918263    2.37611565373902    0.63770043782571
C        -3.65212538160174    1.37520604366688    0.74570674512902
C        -4.01910145260850    0.02621010526166    0.57529093808252
N        -3.09084124772175   -0.95221971803342    0.68970176700587
C         1.10694066753017   -3.08758623700433   -0.02581510148806
H         4.88363472893102   -4.49796432813016    0.06296426114895
H         4.22755928127296   -5.12104604949439   -1.48057181796750
H         5.15504915913413   -3.60199020450423   -1.45186342224967
H         2.99849703532691   -5.87777833182691    0.41453917505787
H        -1.01104338719550   -5.13966846414023    1.66254101663032
H        -2.48149370300830   -4.15583684114395    0.02038792492035
H        -4.95338845413536   -3.60382427335911   -0.23525178339399
H        -6.74438195662806   -1.86891772379926   -0.24498136090559
H        -7.34196927506844    0.53214239271226   -0.05975242403433
H        -4.28691175990678    3.40817224445598    0.74901605724538
H        -2.61069775555756    1.59913704264736    0.90889074253226
H         1.14535081558852   -2.11238800395997   -0.48325759048792
Cl       -0.65632649576817   -0.08421251386908   -0.97139518324896
