67
 energy: -93.754823449090 gnorm: 0.000589018485 xtb: 6.4.1 (afa7bdf)
Ir       -0.83956842436465   -0.57497470055183    1.48325957322140
C        -2.51556116597274    1.11518301966182    4.01003668212431
C        -1.28077914082675    0.46320660972405    3.48925376345102
C        -0.96923702242489   -0.93180538380597    3.67551224145167
C        -1.80573613890729   -1.89210090410914    4.45277409196139
C         0.40751113424132   -1.13259817968784    3.29345092155631
C         1.23468593979697   -2.32600149558966    3.63079734056660
C         0.88779349665028    0.08784828978840    2.74715743760195
C         2.28794955208277    0.40650333439585    2.34792081762382
C        -0.16352132635617    1.08257008560135    2.87124520228456
C         0.06473812881617    2.53866764482426    2.63223049299607
H        -2.47227592774092    1.11861797614606    5.09973595123201
H        -3.40872970098818    0.56973602735104    3.71387369928857
H        -2.60471960455722    2.14041703669815    3.66607144938304
H        -2.86367639988538   -1.68803266297680    4.31345754244329
H        -1.60584256791237   -2.91939582926589    4.16094754279870
H        -1.57799325303530   -1.79088409537467    5.51470732627434
H         0.62518226313193   -3.21902242279812    3.73706598829580
H         2.01252365987165   -2.49712479738372    2.89152351665514
H         1.72322724275324   -2.14171890756249    4.58886069247624
H         2.30026944119338    0.97229119489527    1.41853853489614
H         2.88275153074357   -0.49301457530430    2.21964157377675
H         2.75153669064923    1.02011051035449    3.12104480441745
H        -0.83273541027396    3.12276847446979    2.81404145139835
H         0.40314864784626    2.71319004846709    1.61194326486194
H         0.84702315229381    2.89209800160697    3.30426479817057
C         3.99460189119866   -1.82277856187102   -1.26835414459964
C         3.83464526486775   -3.04616096527935   -0.79907242365729
C         2.58067620108383   -3.62871576991740   -0.21751964671174
C         1.39633464275537   -2.66806789155964   -0.18761805835203
C         0.17494905040144   -3.32023006479250    0.46836177435204
N        -0.92197023008044   -2.38946369068954    0.55266825097386
C        -2.03594446089022   -2.67411094270127   -0.02843606151800
C        -3.07041488475076   -1.68469452980079   -0.01232985683635
C        -4.34226990070730   -1.88978456961370   -0.58688926596351
C        -5.24980833159389   -0.87229613798823   -0.57969377601908
C        -4.86619213982323    0.39332149731498   -0.07564732595624
C        -5.71389888371418    1.50248516390006   -0.11988811000089
C        -5.29137320947215    2.75259938866371    0.30494863741142
O        -6.18164206244905    3.75019999854775    0.21418560560716
C        -5.82269559097373    5.07036421918270    0.60893123594917
C        -7.03858980879164    5.96033868907834    0.40524613152434
C        -3.96614406940137    2.89758239093098    0.77646916073431
C        -3.13287237787318    1.81738773760917    0.86233694305035
C        -3.55134073414368    0.53386549742067    0.46788048554084
N        -2.71440163128960   -0.52553112963071    0.55921528691693
H         4.94024631136647   -1.49770256298004   -1.66834134282242
H         3.20373620155647   -1.09325737274546   -1.28272139179395
H         4.66903684707752   -3.73721172893880   -0.81498853078412
H         2.80631647657703   -3.97554067630028    0.79612558974804
H         2.32035598324743   -4.51747874777395   -0.80046776790010
H         1.66183778077506   -1.76615852310361    0.36395829453333
H         1.13787874117166   -2.36876080774910   -1.20359440629454
H        -0.12560271010461   -4.20271465268970   -0.10576772567739
H         0.43780645750135   -3.63653982006042    1.48008438980916
H        -2.18558750000242   -3.61042703350551   -0.55639648767113
H        -4.57376313548223   -2.85349621122970   -1.00957526028305
H        -6.24361384439258   -1.00199426819724   -0.97858161568406
H        -6.71155605860145    1.39880760428429   -0.51511895680703
H        -4.98660390329208    5.42687541878941   -0.00559767975330
H        -5.52424729843654    5.07403687973888    1.66451301536604
H        -7.34634569657718    5.93947757066734   -0.63653855185134
H        -7.86482309977739    5.61291644622101    1.01910739927493
H        -6.79361527769372    6.98119516996358    0.68308955248271
H        -3.59708181922665    3.87000951145819    1.05921204466830
H        -2.11094243808271    1.94300327225420    1.17785626023726
Cl       -0.04585754878306    0.46020690351203   -0.51984037245473
