68
 energy: -99.497928294163 gnorm: 0.000922879076 xtb: 6.4.1 (afa7bdf)
Ir       -0.78284195105448   -0.69392739877002    1.41843282527193
C        -1.92532169849540    1.26525683047925    4.11157449809232
C        -0.82589778288923    0.59056529492988    3.36726540090646
C        -0.54049950483414   -0.81445861064416    3.61014962592077
C        -1.26542459472321   -1.65949008573038    4.60369675883898
C         0.72620500204504   -1.12093838484049    3.02437239945024
C         1.55616549450106   -2.32152065046227    3.31830567273928
C         1.12356517119274    0.02232714420459    2.25911564768760
C         2.44933110546866    0.18561256844521    1.59666819233786
C         0.19016208357439    1.11435734609214    2.53241955736143
C         0.55789477001435    2.53504655858211    2.17909259721232
C         0.26575238571147    2.91034048188980    0.71883315782095
C         0.90211659565399    4.25663769724510    0.38767088252410
C         0.37908031314990    5.34494864453202    1.32109392458313
C         0.61538876239016    4.95683326127610    2.77825751150354
C        -0.04687998742585    3.61404751396560    3.08066987601514
H        -2.82026733081962    0.64743906967582    4.11886973967344
H        -2.17845835392485    2.23550874567591    3.70772741901363
H        -1.60553543355849    1.39047443269472    5.14687753270428
H        -1.03064242602528   -2.71120177473347    4.46793816516043
H        -0.96360412117141   -1.36835140378220    5.61072396219132
H        -2.34169324352492   -1.52724832944886    4.52683576180445
H         0.94414389885093   -3.19790825346491    3.51127749531408
H         2.24494936206023   -2.54559832567136    2.50968320846006
H         2.14184656881934   -2.11389458300905    4.21500415094259
H         2.87493072921015   -0.77884205752300    1.33501460927344
H         2.36770820557620    0.78852221349124    0.69625353898561
H         3.13394644907232    0.68684772512199    2.28217087566007
H         1.64756348663336    2.58575626566176    2.30672769232909
H        -0.81237458783018    2.97544696513225    0.57263286997729
H         0.64606566989659    2.14652222769505    0.04209677393829
H         0.68262712852353    4.51939463336194   -0.64941280570802
H         1.98838589317055    4.18429628167553    0.48783043820779
H        -0.69198036767299    5.48009909913752    1.15279522268741
H         0.87357109506297    6.29361180571042    1.10190529335270
H         0.20419524843545    5.72474668826760    3.43649529300668
H         1.68926167759622    4.89465223486856    2.97110082237833
H        -1.11313401687396    3.71443356771653    2.87838113099218
H         0.09813357540641    3.35787098906683    4.13082091914443
C        -7.23932591095302    0.65699884192973   -0.27963964403668
O        -5.90056523445073    0.81875957537341    0.16575943463272
C        -5.09337485485692   -0.23573370530254    0.22486389295808
C        -5.40330693390475   -1.55078944274742   -0.13185462783412
C        -4.41800639867561   -2.51227508268461   -0.03771699543268
C        -3.15253135668257   -2.17005523226802    0.43743905724834
C        -2.03481158024840   -3.05923849507937    0.41925917360281
N        -0.87127292703475   -2.58437398417832    0.72678719396449
C         0.26080832244886   -3.40395325010014    0.60613158973160
C         1.38307678354073   -2.91415135320404   -0.06083916240773
C         2.49372373105931   -3.72227568905045   -0.21761435080624
C         2.50457442188364   -5.00731713463386    0.30514502804780
C         1.39354478861467   -5.48919512133122    0.98035687698454
C         0.26866440945961   -4.69842768547862    1.12621282791666
N        -2.86168490384547   -0.90636199297217    0.84689223169113
C        -3.79075802192015    0.01814987880897    0.70474830620000
Br       -3.40051999732689    1.79991546303723    1.12459302935009
H        -7.78919944854483   -0.02092511907170    0.37676359520383
H        -7.67733002419089    1.65124342564425   -0.23036154487422
H        -7.26914360648686    0.29274750069784   -1.30893765430453
H        -6.38309944201673   -1.80853014157090   -0.49925579092392
H        -4.61353271999506   -3.52675215808811   -0.34442043399584
H        -2.15474919325056   -4.07589598797304    0.06218552622292
H         1.34966823087342   -1.91948553344483   -0.47728026420997
H         3.35494009227782   -3.34844601300709   -0.74967327608874
H         3.37725870493186   -5.63045295432270    0.18710535325376
H         1.40158391168731   -6.48591364095809    1.39353209867906
H        -0.59309521991597   -5.06762109751407    1.66151917384382
Cl       -0.59693389367653   -0.02620829902007   -0.88142228238568
