65
 energy: -107.713129026427 gnorm: 0.000423551737 xtb: 6.4.1 (afa7bdf)
Ir       -0.68226474308376   -1.00620908795468    1.48383265768798
C        -2.26327656613127    0.78547291524845    3.92760489127633
C        -1.00837303105206    0.17610148963753    3.40688481955011
C        -0.55009587824791   -1.15338009967041    3.70553448715116
C        -1.21442497075679   -2.09369537363008    4.65274023714741
C         0.79027037788167   -1.28471405091415    3.19484732891649
C         1.72916158205342   -2.39066273823872    3.53088626388692
C         1.10512673099298   -0.10217438880368    2.47170294340900
C         2.44402071338010    0.26528053771953    1.93202404642641
C        -0.02132020001807    0.81525814956378    2.60633796388838
C         0.02113021026721    2.24738491388216    2.26551822237196
C        -0.11578903352966    3.18717115316640    3.28651753759086
C        -0.02925739134700    4.53155100422182    2.97858058768584
F        -0.15826552979464    5.43296491094657    3.97498155334691
C         0.18515930387660    4.98963211522936    1.69103402919081
C         0.31335344273966    4.03169107634579    0.70019888926759
F         0.51949140605162    4.44235052337575   -0.56834683699565
C         0.23662592945697    2.67653701346077    0.95859577268663
H        -2.46988685221903    1.73145389955287    3.43510351133423
H        -2.14896502171501    0.97111433952478    4.99589980879652
H        -3.11241348645790    0.11740311854722    3.80200708026919
H        -0.91381700260861   -3.11975634831330    4.46160176475080
H        -0.92083609326939   -1.84015526911291    5.67212253177088
H        -2.29631044059487   -2.02082726838781    4.58553904380983
H         2.16779657272630   -2.18650159158342    4.50830238598521
H         1.21716574887832   -3.34786026773610    3.58369724518876
H         2.53315902705737   -2.46288086847055    2.80509459085779
H         2.97172516569860   -0.60922943372252    1.56126989938564
H         2.35654089574931    0.99118970874040    1.12887078823773
H         3.03911407527855    0.71016068669097    2.73084434087822
H        -0.26223594409330    2.88599099721147    4.31092172052235
H         0.25081556323624    6.04187178548693    1.47039538656863
H         0.31632242144316    1.96847774176530    0.14836469997282
C        -1.90293217855243   -3.25001039292766    0.21359688781694
N        -0.77957663450774   -2.88584880494526    0.74859451540599
C         0.30433120474076   -3.77455884514139    0.78162344424975
C         1.56096727870316   -3.33395797393449    0.36727074507296
C         2.62994277473496   -4.21026121796129    0.37220746914789
C         2.46303797162633   -5.51597812880325    0.81028357840403
C         1.21613834169249   -5.95024235710775    1.23467958326115
C         0.13404114932688   -5.08985041168940    1.21520617776714
C        -2.95515154671653   -2.28514312137195    0.19926733514182
C        -4.20944652189547   -2.47384224556646   -0.38997672534707
C        -5.12031879778453   -1.44480718858717   -0.37835033158034
C        -4.76817464479711   -0.21844021535123    0.21318140068715
C        -5.69648887540441    0.87909618772294    0.24159583009107
C        -5.60036078148242    2.16157239644722    0.74521769768338
C        -6.83494115546119    2.78310670163588    0.48512586931062
C        -7.59910877980462    1.84642984770790   -0.15436159503443
O        -6.92583914981860    0.70493375477656   -0.30429944196667
C        -3.49136234555587   -0.10874141052417    0.77968883113998
N        -2.62414751745590   -1.10648254746272    0.78767650182888
H        -2.02522959477915   -4.22385580168567   -0.24582867036548
H         1.66833460271411   -2.32168075057481    0.00776568213917
H         3.59725890610584   -3.87497002048536    0.03121572913804
H         3.30264284187817   -6.19323283111099    0.82045893078172
H         1.08465458374723   -6.96426109741415    1.57923057284679
H        -0.83470258671353   -5.41978496498985    1.55810390299745
H        -4.44149294498649   -3.42022917842496   -0.85059386876264
H        -6.09642770680125   -1.55883366442255   -0.82187495695669
H        -4.75889078078366    2.60439117403573    1.23532959902543
H        -7.12031579705813    3.78382992801523    0.73487671194425
H        -8.60131288577122    1.88258214529726   -0.53405163483397
H        -3.17443720242264    0.81776729316589    1.23255414140577
Cl       -0.17556320859942   -0.33698455214695   -0.75322110525519
