72
 energy: -110.958168123003 gnorm: 0.000833395861 xtb: 6.4.1 (afa7bdf)
Ir       -0.86216456960888   -0.73573546908339    1.29403130046703
C        -1.70980791568353    1.42050503320317    3.93321329736812
C        -0.70283493386245    0.64219130815769    3.16122120888489
C        -0.46532449407322   -0.75704996857825    3.47142442583650
C        -1.14976084259608   -1.50963377262517    4.56228978018283
C         0.73544666632139   -1.16338474988739    2.81369639275483
C         1.51863150212784   -2.39290671429159    3.11316318935543
C         1.13263691388727   -0.08705741119468    1.95675083108973
C         2.41392092016128   -0.03020516369174    1.19688862673413
C         0.27536862181468    1.06551392036453    2.22543935228740
C         0.68929532708485    2.44502210743238    1.77140948132426
C         0.29790219912496    2.77321228059296    0.32343416150793
C         0.98274820661197    4.06193839258294   -0.12165203150733
C         0.60857093178763    5.22090254268016    0.79821326946240
C         0.93745009629870    4.88125355715256    2.24941010349555
C         0.22362804441345    3.59640839907889    2.66592011404773
H        -2.62509306972178    0.84791425369447    4.06032332085448
H        -1.95407820298943    2.36819137592034    3.47424789867732
H        -1.30132764388859    1.60907583917616    4.92690005736710
H        -1.00131560067347   -2.57979124362407    4.45121024016214
H        -0.73162181119454   -1.20614852601483    5.52256089155064
H        -2.21591525614499   -1.30198699704715    4.58120600726728
H         0.87649369588008   -3.22287273803185    3.39263418380439
H         2.13575082807851   -2.69641223470767    2.27288622756073
H         2.17630056376201   -2.17649966104606    3.95587353171912
H         2.78218398905790   -1.03014307923003    0.98568368106590
H         2.29225402072314    0.51110355196886    0.26230782363575
H         3.16442122624807    0.48738959803973    1.79619793050304
H         1.78681409011041    2.43747793191037    1.80789145784686
H        -0.78298038834382    2.89908254173303    0.26210208873119
H         0.57602548471227    1.95889480419111   -0.34427841375371
H         0.69084164766248    4.29479840116061   -1.14764944592769
H         2.06714463741413    3.92521768957079   -0.10865306980790
H        -0.46123327555685    5.42195776772179    0.70853062572309
H         1.14329227073489    6.12347714021631    0.49488928580544
H         0.62518883466551    5.70039010629150    2.90024266630490
H         2.01759425244679    4.76098219464782    2.36235077503850
H        -0.84735914524756    3.75521707731834    2.54389877348621
H         0.43813339306085    3.37644717387885    3.71215227296771
C         3.17057404753872   -2.58999013243518   -2.02805124642013
O         3.15319090068473   -3.78946829028909   -1.27408097792921
C         2.09913124343841   -4.03584607564264   -0.47555945307356
C         1.03180182889944   -3.17218578460790   -0.25631001609388
C        -0.02644154725925   -3.55046605652771    0.57002141203473
N        -1.10060961966310   -2.66038050289510    0.72231618043146
C        -2.30666650354131   -3.08793344766661    0.53454837092511
C        -3.37405449904829   -2.14031697632396    0.57927733233136
C        -4.68890482758948   -2.44871889634528    0.23125075772523
C        -5.63476114160812   -1.44771188819045    0.15054233550245
C        -5.23843606001530   -0.12930465454060    0.39157108422808
O        -6.00072893167359    0.95559158129540    0.32466421734506
C        -7.37303361572181    0.83323831940885   -0.02259596939491
C        -3.89001608076020    0.08947380651817    0.74984999673429
Br       -3.38766423468366    1.87130799132978    1.02101721862470
N        -2.99320543314050   -0.86897276343183    0.87759791054271
C        -0.02631494587155   -4.78536440231076    1.21175461099190
C         1.04571400024141   -5.64257089799280    1.02739199780281
C         2.07999178166538   -5.27193663455985    0.19547385265889
F         3.11091327564274   -6.12313865644598    0.01233563784220
H         2.29915436035867   -2.52372224072631   -2.68372290583758
H         3.20914250933019   -1.71348856975412   -1.37755831119656
H         4.07690441890949   -2.64011728904336   -2.62714758864978
H         0.97472221627560   -2.21487058053168   -0.74896113035026
H        -2.50399255438190   -4.11697694455744    0.25609099215190
H        -4.95310365259223   -3.47019930717701    0.01179328094228
H        -6.65266786232811   -1.67830974263029   -0.11765795620941
H        -7.48630544579313    0.40808438122520   -1.02207772219198
H        -7.90809150820918    0.22587254603409    0.71020761247388
H        -7.76128244999918    1.84918607913048   -0.01068776180364
H        -0.83803967218775   -5.06381329597905    1.86379000435211
H         1.08482371764996   -6.60225677938558    1.51643057789553
Cl       -0.76452592926609   -0.22780615479879   -1.04564465817655
