72
 energy: -118.121392719576 gnorm: 0.000351256207 xtb: 6.4.1 (afa7bdf)
Ir       -0.61964091826065   -1.30934297925722    0.91593651496197
C        -1.88075052123001    0.66011569195163    3.40736964243454
C        -0.69926318913402   -0.01004976436069    2.79664274779544
C        -0.25598055462522   -1.33794875900207    3.11758457541858
C        -0.85014748884044   -2.21243257236904    4.16910350378222
C         1.01746088503346   -1.54603673092751    2.48038551880048
C         1.96339908540734   -2.65738627233319    2.77484358019576
C         1.30063539828462   -0.40945307394709    1.67624848678745
C         2.59933455630435   -0.14453938456518    0.99590735207174
C         0.22915014407717    0.55469913430866    1.87226252212619
C         0.29100346788729    1.96130274696673    1.44637147264728
C         0.20150914029053    2.96984492284301    2.40472602967491
C         0.30294197278504    4.28835065388580    2.00433388512131
F         0.21896266504689    5.25691876695860    2.94012378274879
C         0.48734359613403    4.65555482616112    0.68335330174392
C         0.56988142486845    3.63164973270568   -0.24441649338945
F         0.74488763256991    3.95252385833884   -1.54270043188783
C         0.47769005824924    2.29851776113252    0.10611406309040
H        -2.13630314218465    1.57294407176954    2.87730091226160
H        -1.65060686700840    0.90764213115042    4.44416048714685
H        -2.74655919437399    0.00182812341176    3.41376193525800
H        -0.61539324443493   -3.25731371765291    3.98574747330361
H        -0.43520911748298   -1.93824890465367    5.13963873879793
H        -1.92868724493977   -2.09156608024784    4.21735807179830
H         2.54110511214682   -2.39337586805792    3.66153584820258
H         1.43981103278962   -3.58757592519183    2.97692968308365
H         2.65489665437906   -2.81492978033969    1.95290532645539
H         2.86696051924471   -0.96520126896770    0.33432674161182
H         2.55873016022416    0.77092650897506    0.41380877972506
H         3.38331508630229   -0.04849803855053    1.74731398239768
H         0.08106270895655    2.74074305475072    3.45049924238090
H         0.56493566969054    5.68926426301847    0.39061992794074
H         0.52148523960484    1.53809521942989   -0.65937339399344
C         3.23036250323141   -8.10984750366558    1.06286246072502
O         3.26449714154350   -6.86972979440276    0.38127558380346
C         2.20297039513976   -6.05007095413979    0.45833850065859
C         1.03907040209911   -6.30455779042759    1.17442288405758
C        -0.00649508905403   -5.39864648500598    1.17943415067820
C         0.11475869081544   -4.19384097061965    0.49296073844778
N        -0.91548440326416   -3.25713552125580    0.48939242880836
C        -2.14709287113536   -3.63532735643318    0.32780428484863
C        -3.14135235416046   -2.60999821518226    0.29088567768447
C        -4.50871394382127   -2.87159242031715    0.07058764901079
C        -5.38089707732306   -1.82439863783822   -0.01136449453608
C        -4.88810021353705   -0.50345139155111    0.06382176776286
C        -5.72493305805630    0.62087598964979   -0.07507660740227
C        -5.20540063575919    1.88722871206666   -0.05136800166191
C        -3.82284487914549    2.07592393059400    0.09972101952768
C        -2.98417146339138    1.00611752368265    0.26090048369150
C        -3.48900380116792   -0.30738727920737    0.26527280453360
N        -2.65880665987692   -1.36592741213259    0.43485397051156
C         1.29129050711580   -3.90769492246090   -0.21357710827604
C         2.31897237766159   -4.82725553207257   -0.26380396770083
O         3.46910199528936   -4.67344439218432   -0.95470304038699
C         3.62782085288627   -3.52438093785618   -1.76235331691995
H         4.18726297015955   -8.58200104890825    0.85074237910034
H         3.12648563646171   -7.96580467840103    2.14150594136625
H         2.42117372747730   -8.74440603405059    0.69204181143714
H         0.93458075873439   -7.22108826871621    1.73077223254168
H        -0.89514364772862   -5.61013136498969    1.75242552039839
H        -2.40509943101369   -4.67195327604875    0.15042521203863
H        -4.83716936928448   -3.89336184591062   -0.02316492621452
H        -6.43816300676204   -1.98659978731403   -0.15406717612296
H        -6.78283000399281    0.46106887272131   -0.21531389368791
H        -5.85032009915951    2.74425174977690   -0.16514076719413
H        -3.41816591735708    3.07593379150561    0.08428731465941
H        -1.91944762093434    1.15162133258777    0.34086406001832
H         1.34021074236863   -2.97828404754178   -0.75776649964082
H         2.83265382094622   -3.44736203450169   -2.50827292685144
H         4.58585415096204   -3.65052237391339   -2.26193576888175
H         3.65135466591164   -2.61274192295727   -1.15914095018267
Cl       -0.23505252063417   -0.88314604991682   -1.39189324112458
