57
 energy: -76.964310771448 gnorm: 0.000222189861 xtb: 6.4.1 (afa7bdf)
Ir       -0.25102740884144   -1.24818165186767    1.26294618547489
C        -2.00187253832870    0.95347038694741    3.25933976970318
C        -0.74679835820650    0.23207826490936    2.90448369089310
C        -0.31964794046856   -1.00884486932683    3.50050257618181
C        -1.07156327532007   -1.75628000595073    4.55028290717268
C         1.07490865248290   -1.19240248798896    3.18432066188592
C         1.99445794986053   -2.11453504931314    3.90922360071740
C         1.45544893740781   -0.16866706022159    2.27637209527971
C         2.83253121538456    0.14382355092033    1.79517384358824
C         0.32053153231700    0.72372066955944    2.10546828223136
C         0.40006077467240    2.04132918841955    1.41442422226777
H        -1.86377121672905    1.40936539506235    4.24088951046125
H        -2.85335841327755    0.28048205258768    3.32520948225566
H        -2.21983066884385    1.75121357541274    2.55451755075563
H        -2.14399849863032   -1.65741666808444    4.40996884925654
H        -0.81539909777723   -2.81215484751626    4.54562348376446
H        -0.81825523028860   -1.35038425980050    5.53063585398979
H         1.46143211255599   -2.96111843871634    4.33195438807146
H         2.80357158774122   -2.47327349093866    3.27908468492028
H         2.44174965820140   -1.55827416153457    4.73531465475572
H         2.83984316676700    0.28947971452921    0.71656273945652
H         3.53394963229032   -0.64546113099504    2.04756472032885
H         3.17243278792787    1.07026017720091    2.25794017778420
H        -0.58557034478772    2.45118089280996    1.21389966586928
H         0.93249918305757    1.94437475788787    0.47105028124097
H         0.94713876590286    2.74535904029225    2.04251752143215
C        -1.20598878722169   -3.56347871727219   -0.13346863267216
N        -0.14854688266699   -3.18468376088468    0.49802053422167
C         1.00426207796613   -4.06148947721049    0.43272776275810
C         2.29483156550073   -3.27051416609224    0.22584938612544
C         3.48316486064344   -4.22443894271537    0.14268666467276
C         3.58061205350182   -5.08010906396106    1.40266711161915
C         2.28571419218774   -5.85775425034276    1.62094161391460
C         1.08851934611628   -4.91438660971695    1.70592124178798
C        -2.33592817252500   -2.68237898720225   -0.16726718177638
C        -3.51641596580831   -2.95265499520217   -0.86076596050532
C        -4.50347349372893   -1.98728188468145   -0.90657234601277
C        -4.27136450404814   -0.77121784234892   -0.27254762193839
C        -3.07787125875931   -0.57487741083908    0.39882283704521
N        -2.13384552415251   -1.50942270764927    0.47593232263634
H        -1.24004560147713   -4.49909202962467   -0.68261688358090
H         0.87970561790964   -4.73963234188114   -0.42218458154606
H         2.21478163544122   -2.68593156118470   -0.69075348050729
H         2.43323652348843   -2.57820641805118    1.05381840991831
H         4.40056699806621   -3.64961424817688    0.00828830083100
H         3.37027540420931   -4.87275389857092   -0.72885156132277
H         3.77348541860866   -4.44109826989620    2.26646743615206
H         4.41734566439624   -5.77459727544997    1.31325545425131
H         2.14220820544015   -6.55716209308428    0.79455255248482
H         2.35240959357406   -6.44051044937765    2.54086041600087
H         0.16784783548011   -5.48987262826155    1.81564834552143
H         1.19046148840401   -4.26094390223146    2.56905260499317
H        -3.63348996585073   -3.90173014128890   -1.35865705581363
H        -5.42679791409660   -2.16648638501296   -1.43416340378876
H        -5.00535063876819    0.01758345097531   -0.29767174211736
H        -2.87501142550792    0.36549495295117    0.88538543027110
Cl        0.32808968877374   -0.57700248995742   -0.96068237337881
