64
 energy: -88.895742462708 gnorm: 0.000511611296 xtb: 6.4.1 (afa7bdf)
Ir       -0.25128473994850   -1.10251190129551    1.22994044173517
C        -2.06025141432676    0.66710029712929    3.68598495021288
C        -0.83350487631898   -0.02919241959315    3.21501089480244
C        -0.60030329192725   -1.44065856595745    3.42224122323120
C        -1.54238443794231   -2.35629118379025    4.12583182702164
C         0.78325503662523   -1.70516897858165    3.15468948296789
C         1.53018064659829   -2.91255866984782    3.60539018197855
C         1.35454952891363   -0.50979105849577    2.61304520892807
C         2.79630080791860   -0.27414514610967    2.32163183179968
C         0.34669971066872    0.53801707919835    2.68126204408861
C         0.63432216758461    1.97846100176900    2.43118377286835
H        -2.12734032457183    0.54794444372339    4.76769943717134
H        -2.95914869285632    0.23680414920383    3.25047564338274
H        -2.03525339164024    1.72558851295931    3.45199920612398
H        -2.57290705652819   -2.13069161294921    3.86598474856176
H        -1.33660198826735   -3.39627203567931    3.88832962634571
H        -1.43070944239805   -2.22559935047686    5.20320894573714
H         0.92164838927619   -3.81167807181007    3.55384359002231
H         2.45110451255934   -3.05168129566325    3.04600136319881
H         1.80233947154946   -2.76181565626659    4.65165910775849
H         2.91229587595206    0.44342106186114    1.51362260216205
H         3.30202592585248   -1.19574181349808    2.04751533694132
H         3.27948812772653    0.13355922735496    3.21024982451492
H        -0.27364207103106    2.57218318243086    2.46502497381287
H         1.10157341168095    2.11145479804921    1.45750504277459
H         1.32616005325134    2.34578711991727    3.18922064063826
C         4.54069366797896   -3.70866471198155   -0.98417376798366
C         3.28632933088360   -4.14538045107814   -0.23592401988225
C         2.03036904847536   -3.35126480680203   -0.62072656418013
C         1.64167256710366   -3.52629439864141   -2.09624278953194
C         2.12050447355018   -2.38428639026091   -2.98748354098026
C         0.87694667193362   -3.81630518826147    0.30751159705956
N        -0.21928475953872   -2.88756352432530    0.27599641614370
C        -1.24666887301241   -3.18277246890452   -0.45309043660546
C        -2.24402168527346   -2.17810976897143   -0.65312179722562
C        -3.28419272592963   -2.30050887463631   -1.57772401694642
C        -4.12082027443426   -1.22606207881524   -1.78123698490418
C        -3.86753112704559   -0.03317067520200   -1.09285805562947
C        -4.76028997633877    1.04775984456226   -1.26357950655182
N        -5.52050786771475    1.89429084249578   -1.40836024019283
C        -2.77887583657225    0.03599384808971   -0.20631250085131
S        -2.33528928870857    1.51765331335476    0.62583430990284
C        -2.19270486699003    2.70339995470687   -0.74351986191298
N        -2.02985996909544   -1.03961500800472    0.04926344909675
H         4.69577282762582   -2.63713940719821   -0.88311279489485
H         5.40979164805901   -4.22022349477981   -0.57599690195584
H         4.47603553911641   -3.95326554297399   -2.04032046120368
H         3.46753169381310   -4.02257023135851    0.83382655501095
H         3.11152558906020   -5.20780089008439   -0.41924766545363
H         2.20748535373550   -2.28903085653973   -0.42724286421590
H         2.03150334344118   -4.47601271320270   -2.46760295921837
H         0.55325747375084   -3.56310301855533   -2.18508020569788
H         1.70263836326028   -1.44142821091403   -2.64326505619386
H         3.20237754585682   -2.29821750026501   -2.98369734448593
H         1.79563758287500   -2.54873600409772   -4.01288511639951
H         1.25831457677919   -3.87777807181837    1.32447871260616
H         0.54545986684291   -4.80981676191175   -0.00936634586910
H        -1.34326329073917   -4.14431975456750   -0.94521676976302
H        -3.41504047163142   -3.22169021360025   -2.12054739834745
H        -4.95800213815666   -1.28275426756965   -2.45952491245258
H        -1.74446018457640    3.58776287741235   -0.30218531253442
H        -3.16429301388354    2.95004190008184   -1.15665125103226
H        -1.52754926123074    2.28742961148292   -1.49364133952104
Cl        0.63875250836081    0.03305097952335   -0.65411920599071
