70
 energy: -105.398334761038 gnorm: 0.000610936982 xtb: 6.4.1 (afa7bdf)
Ir       -0.65931695259982   -0.54635522428980    1.07352617566261
C        -1.74365484463663    2.07281648595086    3.17326235528827
C        -0.80848248282900    0.97396582057031    2.80780791867591
C        -0.96233778281045   -0.39320053084203    3.27119655929643
C        -2.08285287918498   -0.87320193547878    4.13077712732005
C         0.28232034610926   -1.07096187893625    3.06622944688514
C         0.66045026766503   -2.38505653173395    3.65378004248344
C         1.13092408112928   -0.19623724579518    2.31969308324613
C         2.57370224096831   -0.40828533247786    2.01453874304837
C         0.46093459900234    1.09051269871630    2.20364078786774
C         1.13398410934274    2.32663008983812    1.71459920344866
H        -1.57936633918782    2.32572893910219    4.22195867617737
H        -2.78059215508554    1.76837052444412    3.06277804840497
H        -1.57148080645909    2.96247873766037    2.57659982010179
H        -3.02961133171803   -0.44103334330178    3.81880518519958
H        -2.16262741208810   -1.95629345084785    4.10504440048157
H        -1.89771966308706   -0.57067536991520    5.16218113693470
H        -0.19186529292346   -3.05594820159566    3.71625763048467
H         1.44746711141331   -2.86826404328010    3.08231807018395
H         1.03037404611233   -2.21440749133018    4.66570549190872
H         2.83095268852312    0.02580778927935    1.05135007374780
H         2.82558506491179   -1.46433762367909    2.00710481708713
H         3.17532122665573    0.08683299905844    2.77758317323876
H         0.44339772621150    3.16240627363781    1.66306203572594
H         1.56183779230233    2.16644318943877    0.72674675850136
H         1.94759087263085    2.58516935311512    2.39250100382038
C        -2.85195782205158    8.23226765327181    1.21823491718179
O        -3.08990358496160    6.83806751115055    1.04533114069227
C        -2.06166128498942    6.09522532402532    0.62985452767640
O        -0.96094385508341    6.54498484975361    0.39679917285195
C        -2.41822435892335    4.66059678206327    0.48271566869849
C        -1.50540453501172    3.80868443606687   -0.13491749695154
C        -1.79531316258511    2.46701931671012   -0.29824443814090
C        -3.01051935013944    1.95717998065646    0.15287558820822
C        -3.40157663082969    0.56924875521634   -0.14568170828226
C        -4.65101509213869    0.38630952150657   -0.74775063869376
C        -5.06375075537745   -0.87253483222457   -1.14602830260607
C        -4.20137791971123   -1.93424519472116   -0.94696886227509
C        -2.97900143584636   -1.69741519924977   -0.32146170208387
C        -2.02233029003775   -2.74282960796280   -0.11110328785626
N        -0.89877724825407   -2.43608120676978    0.44934334440351
C         0.06659359049130   -3.43074838555894    0.65188827962850
C        -0.28395272353306   -4.66052410042168    1.21249495882682
C         0.68149696288592   -5.62631888533401    1.41376004692508
C         2.00693887339201   -5.40654551093822    1.04707392630466
C         3.04530193872237   -6.46175453827807    1.24514661317328
C         2.34117568719926   -4.18061342611047    0.47461552588642
C         1.39233330955331   -3.19660618603409    0.28712196855314
N        -2.58912330763398   -0.46624586649607    0.09970297279629
C        -3.92494255498077    2.81391873985201    0.77248898199152
C        -3.63166126337646    4.15166346853520    0.94352446353660
H        -2.19507070521734    8.39668365462609    2.07411824527935
H        -3.82498336454813    8.68366631682098    1.38894192046206
H        -2.38042008541176    8.64947925578174    0.32677757076481
H        -0.57634687969631    4.22124939899991   -0.49797619938015
H        -1.09711670001030    1.82541689079065   -0.81026228543032
H        -5.27492021047272    1.24818786135077   -0.91954911709439
H        -6.02517487522394   -1.01549630519980   -1.61316821237319
H        -4.45192785205294   -2.93249255885717   -1.26572024373877
H        -2.22220929059648   -3.74758180177077   -0.46608961010251
H        -1.30366526663530   -4.83810912872885    1.51933057081045
H         0.40324141986521   -6.56715354964962    1.86373952407753
H         4.00584118275698   -6.01962699308184    1.49893043152508
H         3.17460114502928   -7.02654676754526    0.32144887403439
H         2.75360242995837   -7.15820530149042    2.02672649933334
H         3.36121891930144   -3.99694259960739    0.17197653744728
H         1.65192663089865   -2.25703865293743   -0.17326494836203
H        -4.86478940880924    2.42600060646470    1.13556578927751
H        -4.33633108630663    4.80941988428356    1.42567615412048
Cl        0.33455958006673   -0.13711230631061   -1.07214792631626
