71
 energy: -109.997101719309 gnorm: 0.000991731269 xtb: 6.4.1 (afa7bdf)
Ir        0.12243771887961    0.31866337719279    1.84063662290155
C        -1.86423093839457    1.64757211924857    4.20242848808427
C        -0.52869588036261    1.15847408467060    3.75788613908181
C        -0.07121113599957   -0.18459542379924    3.94216721079486
C        -0.85975075287146   -1.27639116998844    4.57450683745714
C         1.38176256474825   -0.21446858039520    3.72943772925414
C         2.24330703953258   -1.39524469088854    4.00296906535019
C         1.78092702169958    1.04607505153088    3.30711802905219
C         3.17322571881981    1.50004863671703    3.03285269708808
C         0.59680747282512    1.91234034595080    3.24326281601134
C         0.69770905007365    3.38728952905014    3.00779119762904
C        -0.31709510897320    3.95318824521215    2.00596569547586
C        -0.03670138952261    5.43635226785180    1.77879813568796
C        -0.13078357924272    6.20080439459134    3.09740100174058
C         0.83981080967166    5.62361985782424    4.12495654230298
C         0.57429303794281    4.13736831392049    4.34783520054110
H        -2.63944759039104    0.92032059900819    3.97676549852672
H        -2.12955079522884    2.59239032257848    3.74428407996886
H        -1.83851110430876    1.78357784747988    5.28401455482113
H        -0.85912293189945   -1.12801253131592    5.65563211819128
H        -1.89384209686389   -1.26326272706407    4.23821774779843
H        -0.42925838482178   -2.25293291921026    4.37040547428406
H         2.49079721839498   -1.41744370262610    5.06485070173084
H         1.73287366976686   -2.32554982676877    3.76441902884472
H         3.17374017249145   -1.35233290452476    3.44259035250974
H         3.84551557339232    0.65424370878438    2.91757784682640
H         3.22727173162551    2.11196645214289    2.13450583912866
H         3.52817269480163    2.10294417744206    3.86909564236798
H         1.69479229452460    3.59873104255264    2.60891400383402
H        -1.33123990119545    3.84916816603353    2.38808728555117
H        -0.24636847206333    3.40680402615643    1.06315249421429
H        -0.75759606915132    5.84010923547259    1.06624714843151
H         0.96118512390775    5.56565854728894    1.35467743879460
H        -1.15034942569462    6.13690754220607    3.48412401638522
H         0.09298893908377    7.25590359695235    2.93144572067022
H         0.73470094362918    6.15419223598384    5.07322741213908
H         1.86530939275203    5.76726848901481    3.77704249405803
H        -0.42694661462210    4.00453741234494    4.75589147816009
H         1.29045050105244    3.73403080612326    5.06565243115309
C        -5.07254949861083   -2.63951807402333   -1.76532815263916
S        -5.46084611568976   -0.91816261518846   -1.33967888652074
C        -4.00280851044167   -0.48196197692554   -0.49007756528254
N        -3.04981837139967   -1.37921628778630   -0.37582219613335
C        -1.92630950718037   -1.07731643055356    0.26346681023106
C        -0.90147857200892   -2.09828685729788    0.38260964398576
N        -0.95112618508643   -3.23654183231595   -0.13040790975392
C        -0.13804438288018   -4.31427762495552   -0.03819059822174
C         0.42434089063282   -4.85923886811954   -1.20453214506265
C         1.17372580750131   -6.00841693197981   -1.13675025237122
C         1.36055910007519   -6.64435634272984    0.09332204702195
N         2.13327514500739   -7.83339662175654    0.16308134847864
O         2.26291036639428   -8.37844269912459    1.25055895350002
O         2.63846310713924   -8.26137023152514   -0.86491511064004
C         0.79107857479357   -6.12337617204797    1.25637453514264
C         0.05194561646982   -4.96688682389539    1.19224577202415
C        -1.66082051114387    0.17922703527885    0.84995428962423
C        -2.68117740579545    1.12269780598613    0.73646609087929
C        -3.86261061420258    0.81538298165929    0.06708443315070
C        -4.88891849801186    1.77564633125319   -0.04436064140154
N        -5.70702203693995    2.57746098801787   -0.11393057735095
H        -4.17432089100628   -2.65900047903471   -2.37216842572100
H        -5.92638504572525   -3.01129174416591   -2.32277462411496
H        -4.93056867894358   -3.20602367528088   -0.85140370162801
H        -0.00967075128642   -1.73723520555460    0.99149355336757
H         0.27041439408187   -4.35951993801015   -2.14700872295247
H         1.61988794318748   -6.43859207164403   -2.01989347528398
H         0.95065374740740   -6.63676999670702    2.19198697266059
H        -0.40940169551625   -4.56204268997709    2.07925271201983
H         0.90580011576169    1.43093690759148   -1.21576709013503
H        -2.57377695642738    2.10971763675746    1.15951875974941
Cl        1.30494490187480    0.73764454930201   -0.23267006343145
