71
 energy: -114.368775924753 gnorm: 0.000166956728 xtb: 6.4.1 (afa7bdf)
Ir        0.31926451581474   -0.45409953177811    1.64767018508369
C        -1.18558983861942    0.85846856120870    4.34497171676859
C         0.08050909913890    0.47096684129856    3.66324655121138
C         0.76423704182851   -0.77313148408297    3.82026962016539
C         2.00545806609285   -0.69528590641712    3.09045356382673
C         3.12994737905960   -1.67016570379400    3.18741021912285
C         2.10893055669775    0.62056446951606    2.52851601228337
C         0.89670983336036    1.32697404344262    2.83068612420451
C         0.66603021772988    2.74769655318247    2.53573835347456
C         0.36400960787796    3.64936833996370    3.55498785470751
C         0.21197695449867    4.99317784634029    3.27513353382441
C         0.35312729866488    5.47657902779386    1.97490369532602
C         0.21904240171654    6.91125895327795    1.68213996175818
C         1.08587265421057    7.52978520383194    0.78266928035635
C         0.96931742902502    8.87953037195957    0.50690413073696
C        -0.01900923336256    9.63280568930407    1.11963524305832
C        -0.88738674932347    9.02787158131387    2.01374818117152
C        -0.76753896971720    7.67959361355723    2.29693592068272
C         0.63934699224268    4.56772102807367    0.95663039512333
C         0.79665249350080    3.22449076673207    1.23087818263919
C         3.31495044569342    1.18227260819314    1.86582845937153
C         0.35730273792196   -1.88974257102417    4.71719544018954
H        -0.97194132704518    1.09280590022179    5.38854140202779
H        -1.90661185555180    0.04438387373574    4.33223621982445
H        -1.62652407782643    1.73542136579832    3.87944709293468
H         3.73396291152518   -1.42386457530377    4.06167325132827
H         3.76620594540630   -1.61912158820453    2.30903582684692
H         2.76551237504164   -2.68671087501505    3.30345384396685
H         0.28499114675159    3.30316335759069    4.57348349527300
H         0.00914871184775    5.68404293851187    4.07950767917983
H         1.87068413610483    6.95428972741251    0.31361866824823
H         1.65274351829566    9.34707353844459   -0.18718175533851
H        -0.11119444516254   10.68674346935132    0.90172874935541
H        -1.66169334876448    9.61062346662933    2.49132067906848
H        -1.45881677997786    7.21561235672065    2.98512065573875
H         0.72758465714133    4.91700124673142   -0.06096799636132
H         1.01059247350436    2.53135568782182    0.43039520177551
H         3.42206192127757    0.79242821041234    0.85372377655386
H         3.24476532526408    2.26543935473294    1.80500482517175
H         4.20450380243522    0.90542323595389    2.42865701084886
H        -0.71748205916556   -1.89993587150296    4.87293696376090
H         0.67019234741999   -2.85061373593553    4.31603324962998
H         0.83966896785254   -1.75720174206095    5.68634615431896
O         0.75280577334776   -8.00604386396662    2.67918520354084
C         0.12004339411090   -6.98836211500258    2.51473561862742
O        -1.16448256540016   -6.87430980075848    2.83662240802013
C         0.69055028189302   -5.74570113676910    1.92702266063770
C         2.02134066816324   -5.74807878007013    1.51294095085140
C         2.57327288419931   -4.60873865269056    0.95205546865497
C         1.81108784750524   -3.46336383676179    0.80829785561054
C         0.47606560609974   -3.46111370721154    1.21430338457857
N        -0.29002491690591   -2.29826426864269    1.03834460627320
C        -1.43511099222065   -2.36761088352866    0.43642943011622
C        -2.15778664925646   -1.14376180377610    0.26090657362334
C        -3.36290882453079   -1.03018753111740   -0.43831111733914
C        -3.94942560915176    0.21035429599889   -0.57622446199199
C        -3.30215939142668    1.31027893386143   -0.01333358029125
Br       -4.05191879008686    3.05187817192345   -0.15304974931767
C        -2.10416129936319    1.13567971818189    0.66745763839926
N        -1.55093626371038   -0.06068430204399    0.80804820121580
C        -0.08815009402968   -4.60403802710806    1.77364349932738
H        -1.51977285348128   -7.70086425064670    3.20959257837918
H         2.60097864647877   -6.64928750887122    1.63796700617814
H         3.60041214127303   -4.61347601989389    0.62366727166971
H         2.21883883992795   -2.57424402635587    0.35237145387586
H        -1.81529458866699   -3.30156735355875    0.03859174113891
H        -3.81840414223793   -1.90816423134254   -0.86760642298328
H        -4.88039019158334    0.33436472226515   -1.10671019487005
H        -1.58591922117683    1.98205354391293    1.09686284000723
H        -1.11274694851411   -4.60100906640769    2.11006003956753
Cl        1.13411297785393   -0.15377986320033   -0.56434852264000
