66
 energy: -111.809235416731 gnorm: 0.000282469575 xtb: 6.4.1 (afa7bdf)
Ir       -0.24500718750869   -0.99629561972455    1.29072969661280
C        -1.74786224678915    0.19398960450467    4.05299049727244
C        -0.48028313226936   -0.08999637404408    3.32353714986233
C         0.30107873634988   -1.28135401357206    3.44698430212817
C         0.01010141703010   -2.42231644998268    4.35821936701116
C         1.51592965650766   -1.09965601986570    2.69228831699460
C         2.71351479218013   -1.98659486464641    2.74591464518288
C         1.49104382470424    0.20353646020296    2.11451397194521
C         2.62447218099525    0.85331813631938    1.40636030626594
C         0.23181841650881    0.81767068271113    2.45817756184765
C        -0.10198417529250    2.22830759908003    2.21081763723040
C        -0.41182788712255    3.06759528257828    3.27971003242302
C        -0.67774284177278    4.40078452988520    3.03015652197429
F        -0.96953642041443    5.20681067021122    4.07066796168824
C        -0.65605886651670    4.94117854508608    1.75637902836061
C        -0.34763946920177    4.08155722475479    0.71606827196709
F        -0.32164087139052    4.57120536037924   -0.53947626778975
C        -0.07033924687100    2.74231654180833    0.91495355046174
H        -2.27011037794822    1.04145550879334    3.61846956961504
H        -1.51681942755789    0.42534461945245    5.09327908617049
H        -2.40699302755862   -0.67066059239136    4.04856271320460
H         0.39877443107314   -3.35423374750421    3.95589554526985
H         0.49688091604560   -2.24015971864680    5.31699412801795
H        -1.05662879464889   -2.52388696391606    4.53428582364641
H         3.36248742303497   -1.65491100349711    3.55761956752447
H         2.43278772893841   -3.01843193721597    2.93585183654425
H         3.28000490199983   -1.93756269610722    1.82005306679092
H         2.74532855136881    0.44310684476796    0.40402975301941
H         2.45802245270715    1.92335601749024    1.31526945634398
H         3.54886558234650    0.67462447059648    1.95291627323301
H        -0.41914457769356    2.70614493510589    4.29445714756944
H        -0.86593861535531    5.98336821431217    1.58308827193015
H         0.15300113822777    2.10749197439827    0.07124852016242
C         2.93103330100161   -8.26456591463253    1.96488675806242
C         3.21321529340757   -7.00012981833083    1.22912918474008
C         4.41395213278833   -6.76481116046132    0.64999500025372
C         4.72488995527253   -5.54340659942363   -0.06013270702291
O         5.78384700199613   -5.28836513701078   -0.59051317035447
O         3.73870146607184   -4.59628952045424   -0.12496549676557
C         2.52186063342253   -4.79905995687193    0.42590586796067
C         1.59225060012207   -3.77152019926662    0.28848240234734
C         0.31866867942127   -3.92428631939726    0.81368016803245
N        -0.61383587642125   -2.88584087037385    0.66684190933864
C        -1.76329379052899   -3.11423148099874    0.11652466500105
C        -2.65819340659406   -1.99748906680303    0.01510520559597
C        -3.90449592454907   -2.03032552912624   -0.61036992132305
C        -4.65618400120914   -0.87051825948975   -0.66553843232037
C        -4.13858269666829    0.29035604902405   -0.10119106059719
C        -2.89246803611462    0.25284737525439    0.50198951482208
N        -2.16954105928424   -0.86045213034250    0.57138798409485
C        -0.02806756710833   -5.09921783790863    1.49311402524695
C         0.90175932708966   -6.10080661271295    1.64679301643715
C         2.19338362291516   -5.98017874232166    1.11585361701225
H         3.80455412918368   -8.90946244281046    1.95841161099574
H         2.10169334241426   -8.79520521397951    1.50062190089910
H         2.66267132368961   -8.04901201978048    2.99750053695564
H         5.21517135319916   -7.48541611169026    0.68986476493770
H         1.85959526916385   -2.87946090967615   -0.25471255890415
H        -2.02452978287784   -4.08812151157299   -0.28074137314165
H        -4.25755416914430   -2.95090351667636   -1.04674095476431
H        -5.62339264770197   -0.86503211712969   -1.14288919962066
H        -4.69044366473749    1.21578646629593   -0.12592929425592
H        -2.46087721785904    1.14198606740388    0.93816536183704
H        -1.01693791215804   -5.20217309326738    1.91127400088578
H         0.63050967645540   -6.99625955062702    2.18090525640275
Cl        0.39454066119512   -0.50839853630538   -0.94886689312428
