61
 energy: -98.986816289868 gnorm: 0.000522243629 xtb: 6.4.1 (afa7bdf)
Ir       -0.51958752392504   -0.46589383642499    1.42508678795458
C        -2.02660585445897    1.81023800868742    3.57693964197590
C        -0.82517122451423    1.05864963370840    3.11723395307779
C        -0.44257047883988   -0.23609896483082    3.63316973917952
C        -1.16933687473509   -0.96631354818264    4.71058944002430
C         0.89901618405828   -0.51257528491926    3.18829196116289
C         1.76746033959405   -1.60166517898776    3.71312281667471
C         1.28023857709531    0.52308951975439    2.29064443528773
C         2.62327174328381    0.73989538462751    1.68458088895866
C         0.20960576862269    1.50880666514416    2.25895039207515
C         0.34496685188157    2.84555438875112    1.61154029837052
H        -1.87741504259144    2.09255870932341    4.61936069135841
H        -2.92392370610373    1.19882311397806    3.52360232228718
H        -2.18440767375377    2.71270603960114    2.99636687056605
H        -2.24437050229391   -0.85268017281887    4.60344089042938
H        -0.92023672788983   -2.02338761452450    4.70760265128313
H        -0.88061523777976   -0.55352467899197    5.67798174386754
H         1.19629045087948   -2.50175832269384    3.92224151019869
H         2.56538595133899   -1.84641132016118    3.01841313620918
H         2.21949875596590   -1.26397647913148    4.64629681719586
H         2.52817745806743    1.11325197288883    0.66738861251789
H         3.20719639836955   -0.17561436746505    1.66941689735378
H         3.16489830959484    1.48537046436282    2.26776115461140
H        -0.56763468268831    3.42803254790479    1.69672388952368
H         0.59950320265756    2.73814448153077    0.55830807888650
H         1.15337093062055    3.39523109909391    2.09373199389053
C         0.86953389472312   -6.97667172794658    2.95699699179343
O         2.00402784978956   -6.38010208769763    2.35098792729307
C         1.87972448580351   -5.18460713491219    1.75072894158375
C         3.04075821482277   -4.68245211281770    1.14891293289481
C         2.99449922597029   -3.45741602566984    0.52006255679051
F         4.11877275575200   -2.97875607034375   -0.05177810004033
C         1.84679623150885   -2.68698501035133    0.46455577090270
C         0.69459455944516   -3.19822711162112    1.05340446607486
N        -0.47890401928759   -2.43482880047112    0.98875529569951
C        -1.60782133555714   -2.99220829755110    0.67481955608974
C        -2.74004140975153   -2.13138809898421    0.54424027302633
C        -4.02005050008669   -2.59171923332105    0.17169656787535
C        -5.02912481816627   -1.68900073372399   -0.00058616192912
C        -4.74903116219175   -0.30812069063865    0.11776727423758
C        -5.72323772830633    0.67486932661286   -0.13331644105466
C        -5.39007313861525    2.00479188418011   -0.08072699006795
Cl       -6.58003130920853    3.21743585148523   -0.40767323751711
C        -4.07250600338534    2.40283535538290    0.20931680276789
C        -3.11819027616261    1.46473084630737    0.48886036007816
C        -3.42618202987556    0.08978043867032    0.47344977585050
N        -2.47264784437155   -0.83087922680455    0.75408480112118
C         0.70461131348463   -4.43693616404762    1.69620203196855
H         1.21971141311975   -7.93078123081954    3.34457440135539
H         0.07774010941716   -7.15159020750085    2.22527329719831
H         0.49408280199938   -6.36653063838516    3.78151628467837
H         3.95216576397798   -5.25517906122911    1.18253445557890
H         1.83284107477314   -1.74200789853412   -0.05300233383019
H        -1.67902293656234   -4.04684627669971    0.43756922616114
H        -4.17771886247148   -3.64949355603003    0.03885330619738
H        -6.02875602393013   -2.00652838210182   -0.25282302761636
H        -6.72558366634123    0.36857167075556   -0.38651098841958
H        -3.82649774341463    3.45213921867680    0.19790821313405
H        -2.09596697427837    1.75660957257129    0.66719078518690
H        -0.19741748564638   -4.78773980783256    2.16989666801325
Cl       -0.01460781945207    0.08997016116033   -0.84381429797740
