72
 energy: -120.418356617487 gnorm: 0.000247329188 xtb: 6.4.1 (afa7bdf)
Ir       -0.53439314477797   -0.86829487031959    1.44518898239803
C        -2.03317264601071    0.68122034694806    4.05409636791822
C        -0.78592664531376    0.14851380285033    3.43953985274591
C        -0.27166569496245   -1.17594372633186    3.62929981958376
C         1.03800279123821   -1.23570261834237    3.02492705256009
C         2.03229729953940   -2.32377629124763    3.23198684342662
C         1.29312118167627    0.01097499714543    2.39350838802763
C         0.14579937194437    0.87520681939781    2.62687924189471
C         0.09929231796903    2.32024999784906    2.35459498632020
C        -0.07953553879426    3.21436913760836    3.41038315717983
C        -0.10456875846433    4.57481953067445    3.17759377025541
C         0.04945654542470    5.08374610640393    1.88906910299516
C         0.01376117413212    6.53311087047794    1.64283220236130
C         0.93064195088711    7.12912871257172    0.77952327797821
C         0.89641477862705    8.49247781882196    0.55042359988776
C        -0.05955413598504    9.27990127481679    1.17167358755969
C        -0.97945660384787    8.69609960607501    2.02754218583750
C        -0.94067087360569    7.33452998543665    2.26595410190171
C         0.23549109776846    4.18704393107456    0.83850256538207
C         0.25896649105003    2.82557594704082    1.06603832735855
C         2.58639838863958    0.41576326953210    1.78078400385092
C        -0.85659849196635   -2.21281774491841    4.52359449896042
H        -1.86777711881555    0.81630868006405    5.12352316168473
H        -2.86233575269113   -0.01324753318528    3.93755441913421
H        -2.30252263737206    1.64208428364314    3.62479505017480
H         2.54486601357947   -2.14617515402402    4.17823176025968
H         2.77641855651788   -2.33264321679942    2.44163517737811
H         1.55599228839885   -3.29921807175595    3.28852268322876
H        -0.17073184038220    2.84297151256942    4.41925859557509
H        -0.22476303988410    5.25559445422696    4.00690427838371
H         1.68791975218852    6.52430289700421    0.30199848137109
H         1.61840886249507    8.94398010336102   -0.11463055243337
H        -0.08793781087780   10.34420345993162    0.98892126479721
H        -1.73012398517753    9.30548776991844    2.50973412811574
H        -1.66910323353893    6.88515877622657    2.92510903988622
H         0.34186313448567    4.56172692434007   -0.16839761487840
H         0.37831712041840    2.14595672049114    0.23665199646131
H         2.91972086190228   -0.31629042701919    1.04748865341627
H         2.50002356625425    1.38487523488895    1.29879713052546
H         3.34514786883118    0.47800686418466    2.56148169598598
H        -1.93895611050774   -2.13234743094885    4.56659989596577
H        -0.58494759306963   -3.21330783541115    4.19659565681263
H        -0.46612849020860   -2.07329897185785    5.53234722269056
O         1.92437024821481   -2.55716354352794   -0.14494629110314
C         1.41124534264326   -3.66164458582043    0.38336661144887
C         2.28081641877324   -4.74437483493906    0.56637532319310
C         1.85245458234906   -5.93664285328308    1.10314121038359
C         0.51645376753568   -6.07897758661426    1.47140520633474
C         0.00748434568641   -7.34912962635958    2.08470978776088
F        -1.11776799665263   -7.79327200024749    1.48845468933885
F         0.88706475405205   -8.35698259101258    2.04007931244468
F        -0.31782982953094   -7.18789896620426    3.38774499336653
C        -0.37070417586339   -5.02933514657740    1.30067433619438
C         0.06096862694076   -3.81569919418858    0.76831654578177
N        -0.85293726092650   -2.75739234462217    0.66281415227446
C        -2.00568704956265   -2.95144074688970    0.10891972111422
C        -2.91997125566281   -1.84555708492869    0.08955576093536
C        -4.15898217660824   -1.86377781478034   -0.55062313366702
C        -4.93555815431618   -0.71875345413516   -0.53904485310429
C        -4.44885821018396    0.41332744740463    0.10461142547403
C        -3.20884933364197    0.36069452848538    0.72028915326201
N        -2.46395591880431   -0.73984451727593    0.72658291630295
H         1.26599506579736   -1.87759927643338   -0.42484240844569
H         3.30785265816060   -4.61295183543211    0.26724721156891
H         2.54109589361069   -6.75536642637230    1.23544077919177
H        -1.39900170756401   -5.13684890903732    1.61233749779362
H        -2.26442285292164   -3.89513579761158   -0.35818496781497
H        -4.48706921199907   -2.76109977492621   -1.05035524232019
H        -5.89718572700924   -0.70396735254453   -1.02720569554360
H        -5.01895353587119    1.32761173771509    0.13114311668302
H        -2.79808671263211    1.22750641559967    1.21694610133935
Cl        0.02481813830714   -0.28587680891368   -0.82960830112871
