81
 energy: -116.413500053289 gnorm: 0.000423184283 xtb: 6.4.1 (afa7bdf)
Ir       -0.63119478615678   -0.74675291185025    1.66860621703509
C        -2.75920168061440    1.23863429279836    3.46376325445471
C        -1.48676563650181    0.46758115013774    3.41162185573807
C        -1.37521265252036   -0.92177088052345    3.76888200269016
C        -2.49075375944265   -1.75141626769422    4.31135749594586
C         0.01624343411130   -1.25917480166620    3.79539283621723
C         0.60072686246105   -2.48264692667105    4.41050729575313
C         0.75357918875775   -0.13660768656036    3.31167317592625
C         2.23781931675940    0.01170933087758    3.31435917518558
C        -0.18462133838135    0.95635531448653    3.10980037540108
C         0.23406775941147    2.35461831067807    2.94381759707324
C        -0.22811124629313    3.31995902621710    3.83754973791018
C         0.22915562164754    4.61854435808343    3.72127273968259
F        -0.22234422486681    5.54367007664304    4.59434443075194
C         1.13293412703064    5.00718546416785    2.74889425320926
C         1.57112576208787    4.02615485162376    1.87560682277151
F         2.44471568848078    4.37175683035333    0.90766075353932
C         1.14503599674755    2.71450072757323    1.95180323765267
H        -2.62488442016687    2.24081646480655    3.07057790208966
H        -3.09089594098175    1.30877832896112    4.50023952948753
H        -3.54535734723059    0.73737879098193    2.90211723830738
H        -2.32382705460611   -2.80928856613726    4.12690249907831
H        -2.56170822647916   -1.60312473110099    5.38958226211165
H        -3.43973983723124   -1.46432132253198    3.86707051373293
H         0.83834139619175   -2.25798047875393    5.45195042599697
H        -0.10504540039205   -3.30855356692569    4.40452720588272
H         1.52176712669074   -2.78152634477485    3.91776723817428
H         2.62684379854617    0.10881662205955    2.30248347534518
H         2.51149800783172    0.91503949575988    3.85769664472625
H         2.71225952663149   -0.84233127878973    3.78829171005948
H        -0.90930459029275    3.06870696209497    4.63358524827697
H         1.48027917375184    6.02406981181678    2.67562033345263
H         1.49169252658112    1.99504480166966    1.22673544549896
C         6.06714354521629   -2.95250031695439   -0.82881785017279
C         4.59823178473528   -3.31257534814312   -0.63246478415999
C         4.29551283952924   -3.65216508621394    0.82612904017551
C         2.87292170905533   -4.16514152939021    1.05291755208851
C         1.80863628996653   -3.09972675367863    0.79345777549050
C         0.42140427149315   -3.62515382335735    1.16260556922725
N        -0.62764211062418   -2.64964030071378    0.97772133604611
C        -1.73406936365925   -3.02018666112692    0.44799592040968
C        -2.78560575859334   -2.06214813311680    0.22995094269435
C        -4.05143924574473   -2.48036959003103   -0.12745049967887
C        -5.04321572795287   -1.50547226117210   -0.25357223424135
C        -4.66392704541016   -0.19494091385598   -0.23176683112230
C        -3.29389445161396    0.18299203173059   -0.07483774210030
N        -2.95119862084791    1.43982786629083   -0.38668413207055
C        -3.67978426920046    2.19342107822713   -1.40031180794529
C        -4.04296338339731    3.58447344182594   -0.89170220268239
C        -2.75734823764388    4.32939930243781   -0.54739086183257
C        -1.96192523289985    3.50457748225113    0.45870651528538
C        -1.70164210920437    2.08762299737313   -0.05800830820341
N        -2.41666062709376   -0.75484317814869    0.36695511976898
H         6.33732226239097   -2.09697491596167   -0.21298985238288
H         6.26387568383898   -2.69999455897776   -1.86861516428531
H         6.70868373116483   -3.78745856773314   -0.55290583958886
H         3.98322488050067   -2.47070133389104   -0.95365828683800
H         4.35180659184697   -4.16988192955986   -1.26324879226980
H         4.46738955174570   -2.76590668812910    1.44049017962468
H         4.99714627635137   -4.42238808745522    1.15611189989126
H         2.79249593870042   -4.51263730457060    2.08593850040844
H         2.69735335235415   -5.02436925196265    0.40261417027858
H         2.03291027384919   -2.20749376557728    1.37775308867404
H         1.81326072721889   -2.81498897806121   -0.25725188340438
H         0.20077173065138   -4.51618377361629    0.56611910994541
H         0.42343148478522   -3.91714275873061    2.21643200940347
H        -1.89489346756716   -4.04492159571803    0.12631214657463
H        -4.26853698189996   -3.52806197549557   -0.24120106255279
H        -6.07865988309141   -1.78073986334500   -0.37323690103141
H        -5.40639086134293    0.58144823166109   -0.30225117252184
H        -4.55987509966578    1.65303106814977   -1.73808092327209
H        -3.00927565871153    2.29957671235124   -2.26233830203158
H        -4.67531578082270    3.50509053153558   -0.00572125265654
H        -4.60057052320157    4.11723617904353   -1.66196837310752
H        -2.16556465309807    4.47881866270283   -1.45266404859305
H        -2.98192727844643    5.31159351056854   -0.12970737791293
H        -2.52502643407351    3.45536204612892    1.39137003962041
H        -1.00459690293623    3.98091571872911    0.66782987420530
H        -1.17904111733728    1.50424626908668    0.69654951346755
H        -1.06374362132019    2.13054269884171   -0.94695967261235
Cl        0.71302535044108   -0.17428683206961   -0.20963207317836
