68
 energy: -107.644296356876 gnorm: 0.000459936489 xtb: 6.4.1 (afa7bdf)
Ir       -0.23583170256937   -0.59267020044685    1.57667745593714
C        -1.65611301450020    1.16321866637719    4.12786843108897
C        -0.44513807709439    0.52962885301436    3.53813568503393
C        -0.00935096271473   -0.81729360503144    3.78060855406432
C         1.30037748496658   -0.97359765365181    3.19563739381199
C         2.22019421545907   -2.11495955533898    3.45945395521701
C         1.61969167438148    0.22914582102405    2.50494599058585
C         0.52461373919852    1.16815580685692    2.70960196728313
C         0.59941682072181    2.61149399068590    2.42715343411579
C         0.60214915287117    3.50338373646893    3.49892512266351
C         0.74108764415165    4.85875248024834    3.27887182167767
C         0.87618439778547    5.36338276352385    1.98640587313338
C         1.04975270693030    6.80572830636789    1.75764745871191
C         1.96349248046500    7.26594510576502    0.81142449839052
C         2.13942661664382    8.62167690894939    0.60382960410442
C         1.40066533503800    9.53984972275236    1.33226436659555
C         0.48608154535325    9.09339251753488    2.27237526580945
C         0.31417491919292    7.73814236951860    2.48669121415634
C         0.85479391221085    4.46778080916725    0.91850537372249
C         0.72011396420813    3.11056969177894    1.13378528805460
C         2.92778655602534    0.58974542986636    1.89490167791904
C        -0.65846967670151   -1.77262682554389    4.72154298578632
H        -1.49946603206535    1.29262810996793    5.19914015709979
H        -2.53809486465229    0.53877086624804    4.00126948401780
H        -1.83548067779741    2.14087361857374    3.68838098626044
H         2.71622452841143   -1.94414270478053    4.41582938738132
H         2.98305858692737   -2.19702804356710    2.69153410989349
H         1.68179090586316   -3.05683740679433    3.52255078048698
H         0.52579243168960    3.12900896514896    4.50836407569147
H         0.77128987732383    5.53467693993339    4.12019822689397
H         2.55559401248400    6.55756812669318    0.25036830383804
H         2.85697486600466    8.96477756419410   -0.12771874941391
H         1.53755925868727   10.59867300887237    1.16815690030920
H        -0.09512608764699    9.80582770200421    2.84001553261001
H        -0.41111608536971    7.39948459510503    3.21214959372438
H         0.93204822559012    4.84142986575559   -0.09149454279059
H         0.68944231460235    2.43236295138646    0.29510373392230
H         3.49835832535272   -0.29382299067222    1.62453932086627
H         2.78553874055012    1.20691197027271    1.01149967209736
H         3.50320327905848    1.16935229325674    2.61779377983035
H        -1.73894175977619   -1.65943077119274    4.71370223468421
H        -0.40399678583111   -2.79983113860182    4.47627943612364
H        -0.30516598151881   -1.57042843969695    5.73347459430693
Br        3.82662242620309   -6.70278251468004    0.74288563191463
C         2.44793696991536   -5.36765302799091    0.77030509846307
C         2.73780492516535   -4.07694397980069    0.34877242009755
C         1.74979523651587   -3.11342787478532    0.38176703585268
C         0.46324706569450   -3.44395520117609    0.80995368645810
N        -0.52855186573760   -2.45603568434463    0.81263833803535
C        -1.68527415765470   -2.69266496915600    0.27631450693745
C        -2.63026999651147   -1.61876232538219    0.27888034522405
C        -3.88748992877175   -1.66212413558982   -0.33074348717795
C        -4.68440831302497   -0.53664246393695   -0.31838517165358
C        -4.19103724919510    0.61264081691091    0.29973155248094
Br       -5.22266068138661    2.20941724302894    0.35072470221268
C        -2.93668258343374    0.59413407292333    0.89530504512701
N        -2.18036716065192   -0.49549836624120    0.89570714891710
C         0.18207442178236   -4.74734734656658    1.22292372952593
C         1.17695420612127   -5.70599006183504    1.21361222907755
H         3.72732937970211   -3.83196225799189   -0.00236614833896
H         1.94820265327505   -2.10884395969563    0.03942271247880
H        -1.91012941978426   -3.63624968409216   -0.20688895710738
H        -4.21896828143000   -2.56870141658100   -0.81140197855536
H        -5.65912796364144   -0.53591008193889   -0.77957283203498
H        -2.53994126373442    1.47873983079202    1.37192204966771
H        -0.80514355617843   -5.00003014083461    1.57744726175493
H         0.96834441598837   -6.71104685929850    1.54326762370655
Cl        0.31272191087805    0.03823716629159   -0.66430697874685
