70
 energy: -118.182743833395 gnorm: 0.000833116643 xtb: 6.4.1 (afa7bdf)
Ir       -0.56550814531130   -1.01000252238658    1.27815710553698
C        -1.94664148726820    0.78891401686241    3.85847235751335
C        -0.74744737383349    0.15735789195470    3.24353169132631
C        -0.31917604370620   -1.19154259294336    3.48965469965799
C        -0.96475330348849   -2.13125737483186    4.44934670823410
C         0.98156342408904   -1.35900874853241    2.89368463325166
C         1.91814113781775   -2.48749456962253    3.14640727412090
C         1.30264885637334   -0.16882510297298    2.18502298276417
C         2.62859344718192    0.13666804887393    1.58165801734608
C         0.22069847918804    0.78139428914473    2.39919505998366
C         0.30481530705427    2.21675693718198    2.08114902655290
C         0.20617887166819    3.14868365048853    3.11308716286961
C         0.33532989428424    4.49255185243531    2.81756828602985
F         0.24499846135489    5.38652686196404    3.82310378038439
C         0.55376785439057    4.95664833530517    1.53259213478740
C         0.64393156370757    4.00633214694256    0.53014105145230
F         0.85319272983272    4.42273298277983   -0.73494415559008
C         0.52691758540667    2.65153800479213    0.77549791882982
H        -2.15940387028075    1.75523276968108    3.41186303002924
H        -1.76218540637917    0.92674598578417    4.92437029099007
H        -2.82285918503574    0.15223388618500    3.75944386450980
H        -0.70229583848822   -3.16161308047080    4.22727365669325
H        -0.61826160218423   -1.90359260655894    5.45808906340198
H        -2.04594289602153   -2.02653605535599    4.43376592226522
H         2.51358878013165   -2.24554434012231    4.02758601640658
H         1.38753965877856   -3.41517300883909    3.33964127185951
H         2.59512326055270   -2.63183123388042    2.30941826365016
H         2.95088874673862   -0.66206109130401    0.91796576966511
H         2.59935489452864    1.06604082422240    1.02162364297316
H         3.36662521243345    0.23147996820540    2.37875710902473
H         0.05914461799694    2.84173541846441    4.13532788093976
H         0.65120375579746    6.00846186041975    1.32157723165763
H         0.58165670469452    1.95010238244282   -0.04329623162943
C         4.93962933027569   -6.14448978035072    1.69062775744475
S         3.81378429886687   -6.72237717689222    0.39605676204033
O         4.45630708439063   -6.56453494791861   -0.88623074350683
O         3.33167117675037   -8.03816258199984    0.74059447593037
C         2.42827471477960   -5.57171438034295    0.48107561602509
C         1.28008635155691   -5.93976907722972    1.15757638822729
C         0.21099364391243   -5.06336412089926    1.21548970568546
C         0.31189395449428   -3.81298616662014    0.60261761573537
N        -0.76252893527510   -2.91105989957450    0.64002381472921
C        -1.94832452800117   -3.30063422042985    0.29562718566628
C        -2.97951043216268   -2.30875646496920    0.29157278138398
C        -4.30589834856715   -2.58508164621640   -0.09138959469065
C        -5.21370173823508   -1.56403531212508   -0.12482740595515
C        -4.78688011251752   -0.24902130231116    0.15647655530488
C        -5.65575852643429    0.85712817469544    0.07419338245346
C        -5.19576222890601    2.12615768562483    0.30173768766027
C        -3.84154789317400    2.33840867290205    0.60746449240940
C        -2.97553085512648    1.28443705772679    0.71991432916177
C        -3.42160364058318   -0.03526801500859    0.51771450998748
N        -2.56600057703578   -1.07953243582054    0.63986251638045
C         1.48189462747527   -3.44502022763029   -0.06377818757423
C         2.53717912344601   -4.33619080475432   -0.13252114092509
H         5.79981153724052   -6.80297332313685    1.69293991914392
H         4.41914430071347   -6.19659764772418    2.63714352457816
H         5.23849558399867   -5.13357059431143    1.44814256356580
H         1.23570210260010   -6.91658989817310    1.61212794156590
H        -0.68998732885990   -5.33380650462355    1.74429313014652
H        -2.14111881990294   -4.31133483218239   -0.04526008705702
H        -4.57905996445526   -3.59644251971755   -0.34334759160028
H        -6.24580563523938   -1.74140933188307   -0.38527085410823
H        -6.68822972591288    0.68211288066632   -0.18603990275601
H        -5.86385460796505    2.97008154715126    0.23181255256856
H        -3.48184522203957    3.34533276279694    0.75057809498951
H        -1.92928829034771    1.45266778147641    0.91672466835406
H         1.53031918530003   -2.48166533335738   -0.54853713143975
H         3.43801822256140   -4.09553891100437   -0.67391444559380
Cl       -0.07762191961769   -0.38017089222208   -0.96681740337808
