72
 energy: -110.965532208995 gnorm: 0.000345023893 xtb: 6.4.1 (afa7bdf)
Ir       -0.28666420598179   -0.37068066874590    1.70657862927506
C        -1.85831945527900    1.68385957556581    3.96446192839700
C        -0.61310211234632    1.05617799354855    3.43674460626411
C        -0.12370891609418   -0.21047663724472    3.92544306784731
C        -0.76140310995407   -1.00349075743940    5.01425913941857
C         1.20790693464880   -0.39984319285011    3.42060273059908
C         2.15754347702216   -1.44924769013924    3.88240505551177
C         1.49234757981246    0.67538697824100    2.53263531573394
C         2.80690254994790    0.95718275690268    1.88815372164682
C         0.35706160136329    1.59287746464644    2.54279117688569
C         0.42121236393397    2.96696083242573    1.93200111508048
C        -0.76722494471339    3.33700723390809    1.03771086925537
C        -0.52353834673201    4.70344347890476    0.40216620806336
C        -0.33094984022057    5.76816695477951    1.47972769005094
C         0.82923000539096    5.39607590438670    2.39959338117328
C         0.60063749118307    4.02591190421798    3.03220220047874
H        -2.68446329951156    0.97574004271433    3.96762866218785
H        -2.14183734684223    2.56667692126267    3.40358969460215
H        -1.67790525244778    1.97991587348684    4.99869472651142
H        -0.40861228060241   -2.03034664165135    5.00958496179983
H        -0.50047088387607   -0.56037704711478    5.97609197879815
H        -1.84398520404638   -1.00025313343946    4.92529323237485
H         1.63935856410707   -2.36963412652294    4.13573736441826
H         2.90814117081942   -1.67069452804531    3.12971144386073
H         2.66644305030763   -1.08840826044523    4.77681956069204
H         3.46053341001232    0.09181122933510    1.93970846196013
H         2.67629527739349    1.23440443656259    0.84408377414373
H         3.29129456461863    1.78704588154299    2.40331266894499
H         1.31022343752612    2.99681031331923    1.29548003508174
H        -1.68763500598243    3.38956365011538    1.61972199396692
H        -0.87965700920928    2.57818061105724    0.26156694537333
H        -1.36710730431282    4.97153408661518   -0.23711512020133
H         0.36642678895043    4.65919657653297   -0.22901387884270
H        -1.24655143949195    5.86311898899475    2.06849179100602
H        -0.13646703971277    6.73592368659352    1.01341046958517
H         0.93715625834913    6.14790910291867    3.18392477369659
H         1.75674102593949    5.38293137297902    1.82256886553308
H        -0.28753114110973    4.06317331821423    3.66316744940587
H         1.45075335898672    3.76151240989952    3.66358472486191
C         0.65031529561170   -7.04393371783642    2.89177221767290
O         1.86801371776816   -6.48586013198578    2.42978314809779
C         1.85957142114394   -5.24815236326078    1.90320391564541
C         0.74644348413681   -4.42129056199035    1.79299424875737
C         0.86387112998199   -3.14375063511187    1.24178775115453
N        -0.26589498861865   -2.32066526115751    1.13085958507245
C        -1.34982632361364   -2.77992838384898    0.58946378286093
C        -2.45117327147316   -1.87664135561922    0.47916970222159
C        -3.64777222459672   -2.16730067506644   -0.18563820566756
C        -4.60275328383037   -1.18565947700050   -0.29638581551710
Br       -6.24546717202212   -1.49070343568331   -1.20033493656447
C        -4.36899551311712    0.09229163185530    0.26252815646814
O        -5.32400773523900    1.00025869769520    0.12200186385655
C        -5.13248735478451    2.31419778320753    0.62788114995262
C        -3.15432001905907    0.28608617834783    0.92478808491249
N        -2.22765334154691   -0.66101030948007    1.03012346810999
C         2.09071893128105   -2.67462379466569    0.78511131308981
C         3.20246266955252   -3.49567678044728    0.86676432512074
C         3.08388135770216   -4.75169398984929    1.42216131782333
F         4.17796823841757   -5.53668933040520    1.51041734623298
H        -0.07267389835844   -7.13732619025914    2.07792487795480
H         0.22761880678687   -6.45194858705436    3.70696931618045
H         0.91118000392880   -8.03345428538853    3.26057218800460
H        -0.21497280789651   -4.74775920470917    2.15481785887854
H        -1.40615981039739   -3.78345131864417    0.18518373151374
H        -3.80354194077057   -3.14156925708404   -0.61914709680851
H        -5.05066665801662    2.30213332256411    1.71637614045932
H        -4.25010157037264    2.77776168795170    0.18282604926233
H        -6.02308484826272    2.86579438826551    0.33533425062564
H        -2.91768212032775    1.23788600895404    1.37283897545762
H         2.15319498722175   -1.69763403336154    0.33406666238548
H         4.16414513555957   -3.17423810031518    0.50113919008699
Cl        0.16681493128348    0.13797258534085   -0.58282197870055
