61
 energy: -103.402084919155 gnorm: 0.000489887603 xtb: 6.4.1 (afa7bdf)
Ir       -0.87096104005894   -0.90861309721153    1.23511469955361
C        -2.38996473650866    0.88140168922206    3.76291638514071
C        -1.17439178559095    0.26094996224950    3.16828321420148
C        -0.74197583302074   -1.08716153660353    3.43866490118368
C        -1.42301214505179   -2.03493144651789    4.36515890561724
C         0.59646972520808   -1.23611439338874    2.92346913079838
C         1.52291380629903   -2.35373906295549    3.24624776116558
C         0.93128912609009   -0.04247481553560    2.22654640026371
C         2.25468730646217    0.29777873588075    1.63655625393795
C        -0.16876522793622    0.89409150175728    2.38132158272412
C        -0.07490243407885    2.33930179841288    2.01909795846649
H        -2.20522269535231    1.04700225448698    4.82497338471103
H        -3.25339358743056    0.22660809350859    3.67540875971105
H        -2.62521977153151    1.83536215438980    3.30262602820681
H        -2.50374285164508   -1.96123115312092    4.27914070090520
H        -1.11932441395414   -3.05985656505711    4.17061723423119
H        -1.14905844158301   -1.79132429144854    5.39244291707870
H         1.00943537649118   -3.31086404727328    3.28767315869427
H         2.33603207914413   -2.41743281514748    2.52969157968550
H         1.95419492664661   -2.16394889914820    4.23011768650921
H         2.14583407646455    1.03087050024518    0.84249269420293
H         2.74524496564064   -0.58231689564538    1.23032609431018
H         2.89363769809829    0.72155231277523    2.41186267020090
H        -0.99264341983298    2.87190955899940    2.24993968875182
H         0.15316054653668    2.46497212377937    0.96199895356966
H         0.73761431676320    2.79222799951202    2.58727318459823
O         1.76155045124963   -2.31615452066249   -0.42325853754361
C         1.40818228839236   -3.45421316690598    0.15507360037384
C         2.41312854746941   -4.42090606726444    0.30944043315690
C         2.16517447103340   -5.64297251055639    0.88745518491012
C         0.87750266556927   -5.93851724704215    1.33468594421259
C         0.59646433981979   -7.24890486645674    2.00663705815873
F        -0.69064064741775   -7.62565335843224    1.90067611864954
F         0.85480991307572   -7.20761072912520    3.33405239726464
F         1.33176461666581   -8.25965258825063    1.51828189085196
C        -0.13591040611656   -5.00738664543344    1.20003397568033
C         0.10888433532632   -3.76315720158668    0.61614247932903
N        -0.94352974029535   -2.84228141158328    0.52935621373225
C        -2.10423399736208   -3.24640699928548    0.12064133599788
C        -3.16910442684841   -2.29264988818730    0.08475926764446
C        -4.45873026164570   -2.62080812706406   -0.37843419997045
C        -5.41318396313945   -1.64499557070699   -0.43519212194221
C        -5.06501869255272   -0.31854737538953   -0.10359412770769
C        -5.97575482999922    0.75052625708459   -0.21700192559727
C        -5.58232304626566    2.03461868541656    0.04786934673520
C        -4.25575646102715    2.30049692800206    0.42474890448135
C        -3.35428161093838    1.28151260422454    0.57455714103420
C        -3.73294449081041   -0.05283712255934    0.33589001259592
N        -2.83658988349755   -1.05821501833132    0.48856478163478
H         1.02613529899041   -1.69300201896823   -0.63959275601690
H         3.39817195299220   -4.17108387687656   -0.04976842825538
H         2.95405516919081   -6.37035817545483    0.99311341796038
H        -1.12292263073206   -5.22888091091559    1.57754529500066
H        -2.26041227777625   -4.25641055146465   -0.24129902283927
H        -4.66729544383292   -3.63702748520713   -0.66999549912204
H        -6.42002264304565   -1.86486169401720   -0.75505610635873
H        -6.98380692368272    0.53621988974511   -0.53695216397049
H        -6.28158155408777    2.85010737524983   -0.04924396082030
H        -3.94902850509468    3.32138663850868    0.59081885525829
H        -2.32603402522785    1.48167742907340    0.82580893778235
Cl       -0.33942515456294   -0.20062234538084   -1.00427467103309
