72
 energy: -115.522827950087 gnorm: 0.000711444048 xtb: 6.4.1 (afa7bdf)
Ir        0.30453348045040   -0.22422015285916    1.64388154098779
C        -1.26677530996397    1.22664540993562    4.25525472967078
C         0.00936371926011    0.81015877402184    3.60964423989497
C         0.70082850524919   -0.41047747788523    3.88317722115084
C         1.94896434717419   -0.38525617950569    3.16196827044632
C         3.08125362756324   -1.34584098113625    3.30806035890504
C         2.06215021822661    0.89148323433853    2.51691935796191
C         0.84054451121887    1.61360852888295    2.74290907252706
C         0.62214972504772    3.02103752314291    2.38251036486425
C         0.32215747242821    3.96032696986631    3.36803688689355
C         0.18101809306479    5.29417375944946    3.04064483257634
C         0.32998787521334    5.72993931161152    1.72460875226139
C         0.20297497106897    7.15497164331178    1.38508990381372
C         1.07200232127432    7.74211383181052    0.46705330352544
C         0.96373224204904    9.08452408508457    0.15389469195001
C        -0.01820712271906    9.86147518855972    0.74700767560848
C        -0.88991057107899    9.28737629369666    1.65806064964769
C        -0.77849940628332    7.94683480938648    1.97829323413270
C         0.61671425762732    4.78367079605951    0.74082402707190
C         0.76472942275814    3.44964959353857    1.06269943848482
C         3.28674879640130    1.41657547640225    1.86058542537118
C         0.28235986542228   -1.38725146908834    4.92774171914961
H        -1.06673530037574    1.50776233464468    5.29018709988435
H        -1.98239984283504    0.40800141633527    4.27150634942587
H        -1.70667450637618    2.07993089209902    3.74678878428417
H         3.73906334036218   -1.00173357929383    4.10723771473480
H         3.65871651979397   -1.39510111340049    2.38878523425441
H         2.73215968031158   -2.34320341286180    3.55580427149334
H         0.23657924329615    3.65027105790696    4.39751511357589
H        -0.01964533093061    6.01401208230205    3.81957932692489
H         1.85244656501052    7.14883327250296    0.01312678038888
H         1.64922447252958    9.52815899117029   -0.55377442206829
H        -0.10298214604681   10.90976386042540    0.50083089878951
H        -1.66006462109168    9.88795686152884    2.11994760626057
H        -1.47248896296724    7.50637738443545    2.67901170244203
H         0.71335299211517    5.09664541815710   -0.28777081174540
H         0.97889205413980    2.72526002780380    0.29043903395067
H         3.46376052162571    0.91525772323850    0.90905877794267
H         3.19052544878882    2.48280874501930    1.67037868266389
H         4.14915536811351    1.23547297880310    2.50085070552303
H        -0.72874845474107   -1.75113337803477    4.75810462944478
H         0.96695135209104   -2.22734189553899    4.98469674662940
H         0.28699946416336   -0.87974532761417    5.89311257180221
C         2.97869065545470   -6.36491541404667    3.72080972509339
O         2.10921061840548   -5.25914711436863    3.54585640105632
C         1.82936650751256   -4.83473410976720    2.29736298886282
C         2.34690051814068   -5.38448000515744    1.12381279695481
C         1.98065938581684   -4.86120825777357   -0.10462494050051
C         1.10443453658432   -3.79851260840410   -0.17392450407457
F         0.75621443876971   -3.30741245295556   -1.38372973255818
C         0.59260837104398   -3.20746320366225    0.98838818234957
N        -0.24357872088889   -2.08444465934255    0.92718412528806
C        -1.25939154674630   -2.09352264254798    0.12163871623314
C        -1.98857356604602   -0.87406036705149   -0.03999947444358
C        -3.09372291690920   -0.72902176680807   -0.88443406968524
C        -3.69372311642003    0.50569080605534   -1.00655080165521
C        -3.15654694312605    1.56885309210580   -0.28022486099036
Br       -3.92176567164648    3.30321751460539   -0.39693237043644
C        -2.05871616955201    1.36327501588310    0.54360851794892
N        -1.49223485996748    0.16998024657989    0.66984340697200
C         0.95796800940914   -3.74685374803198    2.21281228240755
H         3.97467352206982   -6.15100413448096    3.32545428450267
H         2.57650983615311   -7.26409273479984    3.24834437999313
H         3.03906819641894   -6.51577540503621    4.79642351615190
H         3.02770256809575   -6.21854332975583    1.15064171860855
H         2.36853214365751   -5.27908003508565   -1.01971943214251
H        -1.54536472955186   -2.97923270679269   -0.43428364345194
H        -3.45712249461595   -1.57921033450072   -1.43887345777555
H        -4.54773377434475    0.65411488901881   -1.64836276526768
H        -1.63032007652773    2.18551265921971    1.09935293848012
H         0.53439369729991   -3.34596629888576    3.11683050327598
Cl        1.26011268173636    0.01418979519328   -0.52102992504352
