76
 energy: -114.530672076257 gnorm: 0.000592218649 xtb: 6.4.1 (afa7bdf)
Ir        1.59575818140698   -0.35512386813145    1.85190784191316
C        -0.97070854380653    0.98451507919151    3.58865038661320
C         0.40901406330910    0.43905612939019    3.52800071751282
C         0.78251078982845   -0.89322117923265    3.91873852436592
C         2.20318907688850   -0.96243476133759    3.92890850915408
C         3.02708702561408   -2.09919785125109    4.40691332378209
C         2.73182524942908    0.35262523196557    3.59552257159039
C         1.62543662089010    1.22656016620977    3.36771771706195
C         1.68018193757622    2.68104392680386    3.19597785848499
C         2.39835857160303    3.45233045159589    4.10987253583932
C         2.41925649044854    4.82750583250849    3.99905127122061
C         1.74167846908388    5.47569685803943    2.96680212457861
C         1.76032926743220    6.94184901101157    2.86044938585268
C         1.86895591805059    7.56813766446525    1.62002644253937
C         1.88619084114636    8.94792311182505    1.52783003006117
C         1.78919915460371    9.72460861206065    2.67109890423686
C         1.67749800580597    9.11269249090883    3.90920362881533
C         1.66656588363659    7.73335254351979    4.00433729328397
C         1.04308272324440    4.69796616441712    2.04338484005930
C         1.00463255945908    3.32384700863034    2.16010473641103
C         4.16925359773955    0.72222577827324    3.62525689596964
C        -0.15864254571291   -1.92060279558580    4.44164637931284
H        -1.24115346354602    1.10295533499529    4.63976718243643
H        -1.69243360936914    0.30566779287861    3.13916601480848
H        -1.03341381226865    1.95905052913198    3.11322673876326
H         3.28758852669387   -1.92032189794410    5.45144150739092
H         3.95493298068653   -2.18174119162590    3.84715280061689
H         2.48092430949578   -3.03470637619727    4.34701845011087
H         2.91760024961637    2.97336935763711    4.92486315858890
H         2.98418999893314    5.40813674634321    4.71207236621797
H         1.96497816531880    6.97195328939989    0.72416839257579
H         1.97790640349007    9.42065997332972    0.56068604581419
H         1.80041297036833   10.80199050706635    2.59743663989029
H         1.59760904798038    9.71347916179290    4.80347820062580
H         1.55960010476184    7.26542971970486    4.97190824626531
H         0.51233518405035    5.17959062204267    1.23624489542770
H         0.48289398500953    2.73691432749376    1.41865770939837
H         4.77677398599691   -0.03374879501292    3.13236848340239
H         4.33167542636457    1.68033965994324    3.13938851153089
H         4.50484056500043    0.78892622824653    4.66090201874133
H        -1.12820225157426   -1.84929024468839    3.95843293458990
H         0.23383778524218   -2.92335210601765    4.30751957205699
H        -0.29845370088533   -1.74982012485996    5.50957304189356
C        -5.23333038744531   -3.02361502383116   -1.40293032806327
S        -6.06988634003334   -1.48171365584919   -1.87869171980692
C        -4.89756266663311   -0.32068358599840   -1.32071329998370
N        -3.79783069535415   -0.77473106628017   -0.75945234656493
C        -2.87446860777003    0.07995480890016   -0.32382719296960
C        -1.67305370735046   -0.48532132584032    0.26361615631708
N        -1.49528973433284   -1.73080720092934    0.38738948464450
C        -0.33721603886341   -2.30662364968785    0.79279035807264
C        -0.36646651656234   -3.44629648361643    1.60487594977363
C         0.79926602444483   -4.10818834096695    1.92857355351656
C         2.04531398973281   -3.68321149557114    1.45746309470119
C         3.27592464467526   -4.48117834522124    1.74036107169554
C         2.09639903130378   -2.56151662514506    0.62886835918981
C         0.91903493843930   -1.84919420054273    0.28859579488884
C        -3.02725268338160    1.46497504403309   -0.42948818033244
C        -4.17932644496949    1.95995326300230   -1.01829825425218
C        -5.14327422150059    1.06855075060009   -1.48083593966048
C        -6.32480877195622    1.53579538578003   -2.08948033859547
N        -7.28071591258508    1.93481266319930   -2.58460427046317
H        -4.24621090640034   -3.03815366012279   -1.85056338670329
H        -5.85006736696376   -3.82967903669863   -1.78579813949672
H        -5.16505532533439   -3.06506635220362   -0.32187588636084
H        -0.91267979027582    0.23951265011083    0.61507338139464
H        -1.32051408855831   -3.80610948707228    1.95425385888271
H         0.74708112315864   -5.00601509894775    2.52649418908507
H         4.17073337538912   -3.87285735398720    1.64851406904740
H         3.23941412434652   -4.92970338702869    2.72906236432542
H         3.35183617403489   -5.29312596169148    1.01681070461164
H         3.01728610311987   -2.33528998396086    0.10339179849396
H         0.91285406615173   -1.25870748078955   -0.62615820248221
H        -2.26453262978738    2.13438323789867   -0.06671903526163
H        -4.34080334821070    3.02224943484064   -1.12499569050753
Cl        2.43719640083473    0.79588844424448    0.07727719344545
