75
 energy: -117.731956582509 gnorm: 0.000304198330 xtb: 6.4.1 (afa7bdf)
Ir       -0.50060694883302   -0.56492322324904    1.49999940287094
C        -1.96615938043564    1.23136158062849    4.00876143708780
C        -0.74499938950080    0.59390691353115    3.44154537899257
C        -0.31137610188446   -0.75092103768860    3.70553440261135
C         1.01248146816568   -0.90634439341968    3.15420175939606
C         1.92796541431707   -2.04497462518975    3.44517959861278
C         1.33517664642009    0.28121735434240    2.44486433170121
C         0.23686329311483    1.22417145617504    2.62584108421023
C         0.32044259177410    2.66358722037405    2.32947974119036
C         0.28228550794156    3.57007607481834    3.38841783525627
C         0.42950018215001    4.92290627330111    3.15663565604019
C         0.61461000263998    5.41171313364767    1.86424965504131
C         0.79486571728076    6.85113401284040    1.62227306451302
C         1.73262281788941    7.29832180969273    0.69314168186376
C         1.91549849405823    8.65073138035810    0.47115533323814
C         1.16068922693888    9.57971546123495    1.16881632557806
C         0.22255505152777    9.14672858823375    2.09174749578761
C         0.04275545148857    7.79463064157123    2.31959922292185
C         0.63636796725835    4.50133193108760    0.80862642983516
C         0.49363808843699    3.14704971150710    1.03589538125077
C         2.65394439543044    0.63979743742445    1.85227927041615
C        -0.97124561678817   -1.69255187428590    4.65453926581719
H        -1.81748762657906    1.39034834781564    5.07712179492229
H        -2.84103689564818    0.59551655974573    3.89111494000064
H        -2.15026241306434    2.19536328607900    3.54192326032071
H         2.41236411008291   -1.86380509028389    4.40553127523912
H         2.69991748377011   -2.13862738445538    2.68740087525028
H         1.38767232819498   -2.98564929554463    3.51208330071870
H         0.16841297725084    3.20981762203263    4.39955171440655
H         0.42757984139634    5.60863200356754    3.99062439283698
H         2.33766871441288    6.58184068311079    0.15679638192264
H         2.65145554683940    8.98247429728004   -0.24722344452350
H         1.30330705075510   10.63604936818639    0.99385677398434
H        -0.37102434869834    9.86748286163372    2.63559898396484
H        -0.70131509385503    7.46795428548167    3.03141836893290
H         0.75262302641061    4.86047670528266   -0.20288210842813
H         0.49277248858512    2.45851512621957    0.20526211337015
H         3.25332584020070   -0.24430248529158    1.65620616286971
H         2.52422311619175    1.19412447201115    0.92625553990415
H         3.19366263935686    1.28005794511084    2.55088365111061
H        -2.05180470655609   -1.58252710466128    4.62936810291318
H        -0.71279473407490   -2.72327033572464    4.42881665975747
H        -0.63198255025365   -1.47423605717750    5.66790610292928
Br        4.02981934485181   -6.33001965889375    0.58947672879984
C         2.54825106890543   -5.10912910164492    0.63510250310004
C         2.72789528898946   -3.79951369873433    0.21187692200111
C         1.66617245719257   -2.91815616022269    0.26069220631599
C         0.41717883561608   -3.34956617663153    0.70866726904827
N        -0.65092116616853   -2.44524699492802    0.73485968230886
C        -1.79931965128057   -2.77526169646736    0.23050765780780
C        -2.82954413329888   -1.78872584653813    0.26593730183948
C        -4.10695190090875   -1.94863899081274   -0.28220288508144
C        -4.99684442199840   -0.90316172850129   -0.23257685775866
C        -4.59972528110214    0.31338120772725    0.35159852163661
C        -5.50393372193187    1.42901451597689    0.41367300417979
C        -5.35651114699192    2.71658857839563    0.89157089965557
C        -6.59075842504871    3.35888652255589    0.68656175871682
C        -7.40563199652308    2.42853323096152    0.10262981593967
O        -6.76345828342240    1.27175786881238   -0.06520009639251
C        -3.30338597063733    0.39400536836741    0.87719676187772
N        -2.45632091225041   -0.62111234805922    0.85264864438758
C         0.24859935187948   -4.67111451220841    1.12454943003097
C         1.31598237633499   -5.54797422479519    1.09711742407699
H         3.68944048990612   -3.47477942095925   -0.15200926535200
H         1.77951884751091   -1.90058056560980   -0.08116743439410
H        -1.95864541869190   -3.73473051851244   -0.24786551984047
H        -4.37281328794995   -2.88718021573550   -0.74060926277260
H        -5.98964240993262   -0.99601294151030   -0.64261175200915
H        -4.48077418086632    3.14968668801172    1.32722682371355
H        -6.84330179368147    4.36879032242921    0.93490549264313
H        -8.42550152725115    2.47911835600039   -0.22468271098803
H        -2.95247521350026    1.31102852421269    1.32494970619262
H        -0.70957948291295   -5.00359695386962    1.49304075580488
H         1.19233642843657   -6.56644484439083    1.42859376312753
Cl       -0.02316883736173    0.10443077820229   -0.74831288526970
