82
 energy: -121.634929430870 gnorm: 0.000504206245 xtb: 6.4.1 (afa7bdf)
Ir       -0.65458475940848   -0.34612167767080    1.78117853816267
C        -2.03262450213171    2.13984521157897    3.96601595795589
C        -0.91676223356263    1.31919616105744    3.42178702898912
C        -0.58238618831085    0.02176784714516    3.98586572660304
C        -1.33387534058554   -0.63140947886728    5.09573649244946
C         0.73066948334304   -0.32781272110849    3.55346407790005
C         1.58595427969142   -1.39018819104485    4.14993699758741
C         1.12664678942800    0.63966019769960    2.56866375801497
C         2.48811560071724    0.75289266661128    1.97000495486208
C         0.11834754615056    1.69652602274288    2.53865340772046
C         0.36843574644319    3.02395012506116    1.87996305914256
C        -0.74778697890390    3.52549750699864    0.95999394541943
C        -0.32219879238812    4.83296724085940    0.29804345037112
C         0.00186591537595    5.88898590497242    1.35201881740930
C         1.09579375501894    5.38856914905541    2.29132981755107
C         0.67554195743843    4.08050389456897    2.95510449830683
H        -2.93416247840501    1.54789162932675    4.09739959049695
H        -2.26529200520579    2.99057071674438    3.33747232462142
H        -1.73056179972797    2.50263593136099    4.94997434017876
H        -1.10047135635886   -1.69042002117724    5.15861098193247
H        -1.05267575201707   -0.16425176864992    6.04025675045768
H        -2.40633847841270   -0.51213134764170    4.96958237292786
H         0.99937350441782   -2.24778024065997    4.46708510071121
H         2.35486990633304   -1.72589729203162    3.46102654353724
H         2.07714855421305   -0.97393017318745    5.03058978875714
H         3.01675498031092   -0.19407498740759    2.02165672173323
H         2.43266204851559    1.06461440447381    0.92967006159549
H         3.06088267642303    1.50040534478170    2.51956991816990
H         1.26189133207912    2.91723418347650    1.25766327312006
H        -1.66668239963362    3.69875181739534    1.51887723857085
H        -0.95158171733846    2.77224916171404    0.19815534048853
H        -1.12315576551837    5.19080766797186   -0.35178401680786
H         0.55811620619339    4.65989806268658   -0.32563208407324
H        -0.89827037909361    6.11330317882884    1.92887127090953
H         0.32386443811607    6.81263666880457    0.86648591928086
H         1.29968027342085    6.13878403854000    3.05803404945664
H         2.01664896440284    5.23425291531906    1.72389429868040
H        -0.21139153479548    4.25548967189295    3.56359906098447
H         1.47217466115669    3.72248895992625    3.61021381993673
C         4.15119389988587   -9.50857824849741    6.16467949647646
O         2.98448003575274   -9.26940628377381    5.40571795556009
C         2.90695692354491   -8.13356377442097    4.66341042522990
C         1.73086967768065   -7.96467468817854    3.92712064801440
C         1.54601168002924   -6.84426630269877    3.14973899662171
C         2.52925723918625   -5.85629330158732    3.06836852481183
C         2.33177132720145   -4.65952539864785    2.23931310757098
C         3.38484849514221   -4.10733158463330    1.50781130111119
C         3.19310832167577   -2.97458548482306    0.73523812548055
C         1.95668123598410   -2.35605189606067    0.68611191638377
C         0.89652025654112   -2.90095888161699    1.40737512936849
N        -0.36630755516698   -2.28883425465724    1.34355445983224
C        -1.39488414952307   -3.01074759803967    1.03901886974925
C        -2.66002312603325   -2.36533845389111    0.89437673673886
C        -3.79238593813808   -3.01085847149058    0.39880407284273
C        -4.94379873257082   -2.29257037127174    0.15290979497586
C        -4.93620284011688   -0.91554585003782    0.38880476934660
O        -5.93968549054466   -0.06805032813968    0.18435829235566
C        -7.17851508270017   -0.55229601189247   -0.31324310431378
C        -3.75008973849213   -0.34942484014176    0.90433751014362
Br       -3.77929291878131    1.50333158296470    1.17759182316432
N        -2.65814195993004   -1.03556136339051    1.17911792354527
C         1.08200789168503   -4.05033674090514    2.17073521414646
C         3.70014198083560   -6.03554959083458    3.79838402401269
C         3.89217534699882   -7.15287861359026    4.59051493525251
H         5.03489576551097   -9.58381514453559    5.52405381631010
H         3.98460818211087  -10.46148751101993    6.66355501377129
H         4.30535522227206   -8.72803011339461    6.91559875808456
H         0.97759169968396   -8.73444666605842    3.98371346158561
H         0.63788023467813   -6.74879752244051    2.57468984549932
H         4.35315056280973   -4.58218156048527    1.53076572431850
H         4.01412670379031   -2.56983512749737    0.16363644101077
H         1.78551163517717   -1.48414527895896    0.07567020428730
H        -1.29505697259079   -4.06650657517559    0.81389961807946
H        -3.75364171216446   -4.06826341427145    0.19433578393885
H        -5.82235432414933   -2.78337889255047   -0.23211003753786
H        -7.82075634628120    0.32288332778237   -0.37943235641021
H        -7.61714731410600   -1.27967093838626    0.37295089597137
H        -7.05666979542201   -0.99406453541006   -1.30450854661110
H         0.25897213687300   -4.44373782455929    2.74757642472437
H         4.47118141826562   -5.28044809306080    3.77089348743699
H         4.81098162703104   -7.24801864960174    5.14682803968609
Cl       -0.46396666089244    0.11908488747868   -0.54954271665798
