84
 energy: -130.980269909601 gnorm: 0.000955711109 xtb: 6.4.1 (afa7bdf)
Ir       -0.52769541021143   -0.76826538632814    1.48902517517895
C        -1.92374933319185    1.05132732229669    4.04222374321869
C        -0.72106977455223    0.40446388956815    3.44739044693453
C        -0.31647487067517   -0.95398088848877    3.69129389005902
C         0.99823249306046   -1.13331235522366    3.13014077965542
C         1.90653900999819   -2.27636773722770    3.42335219041077
C         1.33665432069626    0.05250923675540    2.42099767176443
C         0.26746580649118    1.01989363122986    2.62889469134634
C         0.38375339189637    2.46054886598347    2.34927517578376
C         0.34076287967863    3.35666930001778    3.41661280923882
C         0.50368042399008    4.70990525109582    3.20142268741992
C         0.70970649435062    5.21148321715592    1.91699827021453
C         0.89220689659352    6.65407138965879    1.69624170448716
C         1.83896189521685    7.11930786100285    0.78559484319818
C         2.02032289501986    8.47609129823125    0.58929288864945
C         1.25534605106667    9.39122069578002    1.29408400173857
C         0.30724278765535    8.94021302438159    2.19803626422648
C         0.12866200961950    7.58397795453851    2.39990426028964
C         0.74295470243290    4.31175320129703    0.85266189009007
C         0.58379821916701    2.95625313113454    1.06307431044257
C         2.65770683609165    0.37441745925602    1.81294838001213
C        -0.99512839850713   -1.89336933235635    4.62995865884715
H        -1.76601422330666    1.16846044151847    5.11493755103786
H        -2.81202012641344    0.43803993113395    3.90682879749235
H        -2.09958066904551    2.03053882606309    3.60634071774338
H         2.41472738483696   -2.07775088361881    4.36806428196452
H         2.65942766999437   -2.39509063749381    2.65005746165442
H         1.35985532392785   -3.21025224575001    3.52385082884382
H         0.20913681500288    2.98662295177085    4.42171934916030
H         0.49603399380442    5.38649321034870    4.04273124422892
H         2.45222677668170    6.41414419587105    0.24373492683122
H         2.76358418744367    8.82264426957428   -0.11439970222158
H         1.39734390730915   10.45085707889718    1.13935793290974
H        -0.29495173108495    9.64973144368264    2.74720175789048
H        -0.62327948603815    7.24263086124283    3.09636769563853
H         0.87846781423859    4.68010618254267   -0.15316926837633
H         0.59164760708981    2.27792534757256    0.22280754096850
H         3.19628464676599   -0.52915421372865    1.54198933286631
H         2.53681579017169    0.99297023691874    0.92788615857730
H         3.25364386698703    0.93340909093624    2.53528471514779
H        -2.07372353100156   -1.76447972215035    4.59936925028916
H        -0.75222291967042   -2.92582514703511    4.39372337165479
H        -0.65846943490048   -1.69126541449933    5.64731431041734
C         5.59384174330351   -8.23518520469672    0.90195004026709
O         4.32336831424546   -8.50851814904780    1.45960312066114
C         3.36525085630755   -7.55874456952987    1.40253617671872
C         2.12577466677633   -7.92587424815556    1.98663044794097
C         1.07778016056806   -7.05860730341028    2.00055091512313
C         1.19671346486163   -5.76978505638689    1.42680381052477
C         0.13029712600180   -4.85969266094298    1.41908018534686
C         0.28431467871936   -3.59880771372251    0.87352767755496
N        -0.76037968165730   -2.67632431605963    0.87310175890279
C        -1.96702945236572   -3.04550575317979    0.56823607633985
C        -2.97137413678198   -2.03075846828212    0.54958734834400
C        -4.31116093356732   -2.28021183045121    0.18550514079633
C        -5.19164322638217   -1.23959760203663    0.13148006028801
C        -4.72825726921123    0.07352325688098    0.37868849212823
C        -5.57248448141755    1.19325298588487    0.27122817029596
C        -5.07226093555329    2.45521404521981    0.46890672879361
Cl       -6.10466320067387    3.83639563265374    0.32661157541709
C        -3.71213882277225    2.64767246275257    0.76814461774979
C        -2.87882345095003    1.57185331261615    0.89930868339663
C        -3.35728234947923    0.25778928403638    0.72650690909364
N        -2.52610444801771   -0.80312043772918    0.86295040796326
C         1.52414901222156   -3.22003809369808    0.30882391492349
C         2.56039198636673   -4.10543113115768    0.27854999154108
C         2.43809529498300   -5.39793268381982    0.84073550311057
C         3.50917169779538   -6.30806813381982    0.84106082382840
H         5.52011774604308   -8.02495735191782   -0.16861939940630
H         6.07666928579761   -7.39691402334680    1.41215721494142
H         6.18066521816759   -9.13894346376602    1.05381631969172
H         2.04907597459641   -8.91234423509581    2.41513713026535
H         0.13875988091809   -7.34876074897891    2.44655038849241
H        -0.80235483228690   -5.14182170178536    1.88531333335297
H        -2.19258060260981   -4.06152392010283    0.26764752964410
H        -4.61233392140257   -3.29053679400807   -0.03733677111412
H        -6.22922931042596   -1.39581586951205   -0.11898786440433
H        -6.61028413124621    1.04601100930912    0.01885949759416
H        -3.33221756643214    3.64914300408434    0.88765175895276
H        -1.82886508316812    1.72332105859527    1.08995440384822
H         1.60960832151673   -2.23693299245366   -0.12819637435533
H         3.49811177879118   -3.82578782730562   -0.17703819281868
H         4.43934893200543   -5.99945893202472    0.39065067842126
Cl       -0.03416529228809   -0.12525466917258   -0.75703621809047
