54
 energy: -84.174875395760 gnorm: 0.000427319505 xtb: 6.4.1 (afa7bdf)
Ir       -0.54316345354955   -1.11447594400538    1.38174233927417
C        -2.03404515158499    1.25725724848777    3.38255661023766
C        -0.85037519071973    0.42808243701694    3.01606023518041
C        -0.53474044650977   -0.86039876373350    3.59162573022187
C        -1.32686783405324   -1.54388365424379    4.65347228521403
C         0.80655023205927   -1.20237239528164    3.20145736258593
C         1.60006749348679   -2.33106340890789    3.76116792138587
C         1.26628667285931   -0.20516100312173    2.29443493979742
C         2.64750458638377   -0.05079378152639    1.75485590881304
C         0.24095116435656    0.82220379194817    2.20064835400125
C         0.43823520618065    2.13500998593356    1.52478117358858
H        -1.80758753514073    1.79708044814306    4.30308716917332
H        -2.91134339865176    0.64214958394443    3.56520911052868
H        -2.26034013511569    1.99208294750070    2.61439809319671
H        -2.39388081542060   -1.40414626747778    4.50340168072969
H        -1.11117178305003   -2.60826885903045    4.68141238252641
H        -1.06369028529352   -1.12046553488403    5.62357576096816
H         0.97715571017033   -3.20203629951435    3.94806760907552
H         2.41047293916612   -2.61676756686476    3.09686398022527
H         2.03120435000206   -2.01575318900546    4.71175472104636
H         2.62035329432604    0.29628459115013    0.72445971265172
H         3.19680579388658   -0.98622251182370    1.80031382270027
H         3.18138848359063    0.69431249343782    2.34529613967440
H        -0.48820985782222    2.69799439181147    1.46543684148774
H         0.82474023823624    1.99359953374672    0.51763392520772
H         1.16687073332410    2.71991635214373    2.08658189670890
O         0.72060077523934   -7.63843056459572    2.65072101342369
C         1.75364591248652   -7.15757383759383    2.24119758816876
O         2.92529021360705   -7.77388951364172    2.32937601732958
C         1.83727236692093   -5.82028248123472    1.59316655502851
C         3.03977030963856   -5.31671683957583    1.10308646412665
C         3.06709684500109   -4.06610014699125    0.50626493017139
C         1.91312664503575   -3.31024255384324    0.40464196605030
C         0.70659554309900   -3.81582721660970    0.89098296320064
N        -0.45904062030255   -3.04222036112612    0.78311435175332
C        -1.53152078699767   -3.55489469411163    0.26913900098518
C        -2.67512307402725   -2.69598427657019    0.18419702824172
C        -3.88598671932502   -3.04619840023649   -0.41533553459880
C        -4.89943501734887   -2.10855551134504   -0.47587348574759
C        -4.67063005767993   -0.84271072229686    0.05371790225067
C        -3.44481268899534   -0.56378181183502    0.63293396971840
N        -2.46987894334528   -1.46420628926622    0.71431770669936
C         0.66878977108146   -5.07424729857896    1.48009646366827
H         2.84846301391347   -8.64548061577949    2.75750198308744
H         3.93862879811892   -5.90491792109200    1.19121114616522
H         3.99521885570557   -3.67859696432933    0.11622910018885
H         1.91746302329359   -2.34358196589581   -0.07510907945391
H        -1.55307038233174   -4.56631917423779   -0.11929213459480
H        -4.00728610870815   -4.03463084593562   -0.82841097748908
H        -5.84629136699249   -2.35098870969512   -0.93155872834800
H        -5.43185224909220   -0.08040049165922    0.02050975255290
H        -3.23817033824483    0.41240489664720    1.04448068407336
H        -0.25004700278099   -5.47773855880757    1.87778935571814
Cl       -0.08750572809396   -0.50114075563741   -0.88380870857223
