61
 energy: -113.470936910859 gnorm: 0.000212742511 xtb: 6.4.1 (afa7bdf)
Ir       -0.35544919874039   -1.19367724948160    1.48917519019502
C        -2.00366706260970   -0.01998641518197    4.16827163707309
C        -0.69856512748229   -0.29906230424676    3.51034880237267
C         0.07758062304358   -1.48798980578979    3.67391991591953
C        -0.25357715601706   -2.63617967148905    4.56002525553879
C         1.32280140339519   -1.30911791486028    2.96842802735695
C         2.51710779968085   -2.19290323664330    3.08651098473149
C         1.33254434355419    0.01130795633039    2.40788336856341
C         2.50115347427361    0.66872251387495    1.77089960497202
C         0.06103427528838    0.61813077993706    2.69130215832511
C        -0.26971546837389    2.02365121893856    2.41307595111290
C        -0.67943436238998    2.86553106206693    3.44508181852544
C        -0.94181564770899    4.19321067405010    3.16274639790722
F        -1.33085943142954    5.00067336865888    4.16817703675727
C        -0.81917722042844    4.72553293452809    1.89142696291347
C        -0.41138973604964    3.86409233231211    0.88792099952951
F        -0.28307863378523    4.34325823473877   -0.36448581335791
C        -0.13400986176584    2.53033435911385    1.12055447652603
H        -2.51345501104870    0.81592709985400    3.69710050658843
H        -1.82785673035378    0.22799507211982    5.21575206676512
H        -2.65172345095119   -0.89283263621172    4.14524370030795
H         0.13573811702237   -3.56712232269657    4.15623592604486
H         0.21007236181339   -2.47253107247623    5.53341020991976
H        -1.32545041353120   -2.72709588878709    4.70697282872440
H         3.07846305846531   -1.90248856745332    3.97550868486228
H         2.23013347897593   -3.23441953817049    3.19400461290970
H         3.16704089309526   -2.08846813373597    2.22341066840743
H         2.63124105368023    0.32386173816482    0.74511250376377
H         2.36512714625205    1.74667539618113    1.74893771547249
H         3.40597040642615    0.42564734272381    2.32393880132921
H        -0.76628230978304    2.51284048303318    4.45908780934213
H        -1.02968796378800    5.76285008204486    1.69195973102812
H         0.17034029052104    1.89537994339477    0.30281806014636
F        -4.41421487725136    2.45423511035429    0.64668188453071
C        -4.83604260612965    1.56049557650408   -0.25912388917273
F        -6.15909633103272    1.43070398745825   -0.09038537887262
F        -4.65803623157750    2.12252480095454   -1.46638266619353
C        -4.11766179398692    0.24133939815085   -0.14290563355932
C        -4.65834247972888   -0.90632629290941   -0.73063970455914
C        -3.95748269342297   -2.08960105202427   -0.61781839539059
C        -2.74726478881299   -2.09993220987997    0.08227795495936
C        -1.90577693164650   -3.24671664194946    0.24275490088634
N        -0.76803144595600   -3.06281260084967    0.84240604636818
C         0.11062311858981   -4.14137752510280    1.01463329752221
C        -0.33068018506973   -5.34499177189393    1.56890424359548
C         0.55158988844839   -6.39592953509539    1.72921810737948
C         1.86868954119278   -6.25423752956247    1.31200648789518
Br        3.09000116181996   -7.71969726704097    1.52100126455073
C         2.31584596371944   -5.06461735488256    0.75068170838437
C         1.44121668101559   -4.00506665321836    0.61537848996940
N        -2.24547788982287   -0.97493750975154    0.65336218827268
C        -2.90852806922641    0.16728662256579    0.53045606471267
H        -5.59956457142870   -0.85843492434582   -1.25664186368861
H        -4.32747568556243   -2.99813682384772   -1.06543203706879
H        -2.18774506854372   -4.21197773221012   -0.16060582005905
H        -1.35201847151530   -5.44389752529355    1.90188640321692
H         0.22019300619426   -7.32150753410697    2.17148128527417
H         3.33846469120148   -4.97114983744544    0.42330492667170
H         1.76239301986892   -3.07898811229049    0.16399233139006
H        -2.46934422418644    1.04816517887007    0.97808298847010
Cl        0.43139933357172   -0.71090307614371   -0.69587778603544
