68
 energy: -113.809529191939 gnorm: 0.000506971530 xtb: 6.4.1 (afa7bdf)
Ir       -0.69311985318943   -0.31791467971579    1.38084480641561
C        -2.14368940728553    1.51262539999801    3.92235072568883
C        -0.94949804532360    0.86259989974625    3.31478904553681
C        -0.55022742279887   -0.49660863566480    3.58191487142657
C        -1.24836904051034   -1.42335483513372    4.51711026971364
C         0.77997589330798   -0.68012246601293    3.05716247992689
C         1.67832507484362   -1.82303704822334    3.37123911674149
C         1.13814541568195    0.50248495995560    2.35381106886605
C         2.46504664899335    0.81316387915361    1.75458190900971
C         0.06432393355869    1.46807331803747    2.51849755851082
C         0.19238840894743    2.90829399151689    2.14701832923311
H        -1.95731321398921    1.64413215887389    4.98873280785297
H        -3.03057859148716    0.89281767269926    3.81509896562982
H        -2.34094601267661    2.48570063864115    3.48520473132962
H        -2.32722525384805   -1.31789567342529    4.44181231154427
H        -0.97746606429608   -2.45704308593053    4.32064118831831
H        -0.95612211463620   -1.18709134959812    5.54101797642411
H         1.13593406740824   -2.76305157943757    3.43145742197428
H         2.47321052474812   -1.91936808634188    2.63791306598859
H         2.13633559396184   -1.63855216068184    4.34393774994197
H         2.36090901871838    1.51160143130961    0.92921860290600
H         2.95489700389560   -0.08430508291298    1.38837194826016
H         3.10165281601352    1.26944934718609    2.51303050164910
H        -0.71070571015103    3.46481211467639    2.37889362401388
H         0.41752588009080    3.02041489536661    1.08782374534621
H         1.01939469855348    3.34455245502790    2.70736774406416
C        -7.29302106011729    5.81344823615267    0.22551222039712
C        -6.02385440373066    5.00399589303481    0.43927276956681
O        -6.34491782807988    3.63427259066850    0.21269725143718
C        -5.40767298914346    2.68827133666567    0.32269556360226
C        -4.05458731560917    2.92970205781515    0.66353838046525
C        -3.16864655026816    1.89657537496606    0.78125793391650
C        -3.55886992818360    0.56341918449760    0.55105248845878
N        -2.67018125560488   -0.44614702384861    0.67433911138138
C        -3.02368404324529   -1.67879230897300    0.27837422080081
C        -1.96854964208250   -2.63926464368206    0.28345938863986
N        -0.79271811552667   -2.24774502466828    0.66374273318790
C         0.25463734871622   -3.17594717604797    0.72501668527755
C         0.01825905562081   -4.41739774951980    1.31714367275624
C         1.03086030318008   -5.35292557468909    1.43136812009334
C         0.75686875295696   -6.65561316096797    2.11994690071006
F        -0.52035280286719   -7.05853059951470    1.98840555209657
F         1.52320482242281   -7.66228181003755    1.67505840816997
F         0.97685156134497   -6.58190962070492    3.45423911927801
C         2.30898337585789   -5.06444267341783    0.95469073303548
C         2.54854024457207   -3.84492409297814    0.36738767593898
C         1.54473767610662   -2.87440665004922    0.23429247112861
O         1.89100011825747   -1.73797209711573   -0.35250271316116
C        -4.33231278284610   -1.99046698413706   -0.15067939587519
C        -5.27708745794396   -1.00829467840092   -0.18165801885907
C        -4.90910564934847    0.31892117004227    0.14487264980329
C        -5.80611059194371    1.38491378933880    0.06225388848941
H        -8.06022887977175    5.50275330927013    0.92917011439653
H        -7.66594639419617    5.66280349178248   -0.78370099198424
H        -7.08221104636541    6.86856355718747    0.37202123179317
H        -5.24781910568283    5.32455313885671   -0.26643642169558
H        -5.65902823239663    5.13422522911802    1.46533201252848
H        -3.71177082218026    3.93909824064731    0.82275480168935
H        -2.13220489620247    2.09225384727504    1.00191096361291
H        -2.14167487380443   -3.64682728509593   -0.07761882757134
H        -0.96118349055733   -4.63464559945674    1.71629127026905
H         3.09728451678087   -5.79452306086864    1.04433182139062
H         3.52592881313319   -3.59956197754321   -0.01496369433208
H         1.15407897533205   -1.10932410624421   -0.54563268959312
H        -4.55841727035730   -3.00439793781631   -0.43707076270403
H        -6.29351965383064   -1.21627837854896   -0.47678869327137
H        -6.82767358213714    1.20431041233719   -0.23103518942840
Cl       -0.20214714879330    0.40117787555027   -0.86541332214832
