83
 energy: -127.344594053241 gnorm: 0.000369841674 xtb: 6.4.1 (afa7bdf)
Ir       -0.67291568572391   -0.03950406211999    1.30618668795472
C        -1.18586170600577    2.93010907182183    3.18884101068146
C        -0.52439152529623    1.62807359492104    2.88489198882216
C        -0.97582277236725    0.37897332330295    3.46971321617037
C        -2.21234521200311    0.22305599823536    4.28693607705779
C         0.06901576225564   -0.58110772416957    3.34551924916568
C         0.12009361045052   -1.90680075533899    4.02336956068754
C         1.12486389490612    0.02778094874307    2.58040776488881
C         2.48750504536616   -0.54801593224121    2.38613279522764
C         0.77636766300121    1.41601312428228    2.35213923643159
C         1.77392803779136    2.41657790170742    1.84656976488025
C         1.28044483765700    3.37337123813151    0.75812527452133
C         2.43877130141545    4.24790959724281    0.28573683251000
C         3.01940723639699    5.04525170974180    1.45129209641709
C         3.47506178312816    4.11008022930006    2.56811161677673
C         2.32124552332316    3.22749657834094    3.03512847487883
H        -2.26305788844681    2.81801916271639    3.26232044010238
H        -0.96870194410452    3.68661270592719    2.44407826453983
H        -0.81964257509158    3.28057687458149    4.15516685432794
H        -2.51655219820825   -0.81795490377899    4.34843890862716
H        -2.01741654573836    0.58157309717633    5.29823884060494
H        -3.03096154810488    0.80704835376544    3.87491551174638
H        -0.87367646665516   -2.32960868153574    4.14182978568354
H         0.74381143238254   -2.61202310580414    3.48052442472687
H         0.54928595393570   -1.77170057014775    5.01699461649726
H         2.48846014426220   -1.62095378344474    2.55202913593706
H         2.86128790381243   -0.35399104441576    1.38391483895647
H         3.17465371554040   -0.08992829126670    3.09795524329497
H         2.60991841449360    1.85616814814376    1.41727281149911
H         0.49060501281933    4.02062322414803    1.13724785690987
H         0.88170580919340    2.79797782511516   -0.07691939037359
H         2.08967565850323    4.93104081906405   -0.49099612303505
H         3.21906852187830    3.62088691759349   -0.15144775656736
H         2.25918531828197    5.72838854832151    1.83737768300167
H         3.86145842030890    5.64891576185203    1.10653252463212
H         3.85304915255227    4.69391551169963    3.40989786908152
H         4.29239258396459    3.48332191455298    2.20403890884502
H         1.52905198978572    3.85514126206388    3.44364206543188
H         2.66328676088321    2.55390722061743    3.82322152026442
C        -3.94248335881974    8.37003052317757    1.94239377081443
O        -3.98138054207034    6.94928693189209    1.84369579574236
C        -3.10221791519289    6.37758226572888    1.01706666806015
O        -2.28915689656800    7.00217628190262    0.37175558655055
C        -3.23293623656561    4.89822516069229    0.97837259474821
C        -4.20581577198399    4.22706244179772    1.71771305329550
C        -4.32337467249619    2.85565761345406    1.61265130386754
C        -3.46101132937494    2.12990135203570    0.78669756249967
C        -3.70940339710329    0.70008595349616    0.54407786579401
C        -5.01438831093163    0.33976440713761    0.18702016354853
C        -5.30683431574142   -0.96020884873846   -0.18090584029672
C        -4.27479141678473   -1.88204364495322   -0.19788449079184
C        -3.00569827578300   -1.47361897850570    0.20366132588482
C        -1.89008803091386   -2.37628815284303    0.20845651565306
N        -0.74732988803281   -1.93875645366427    0.61465413510756
C         0.35568707189347   -2.80971446086069    0.62054917902694
C         0.25587121571664   -4.05810718292512    1.23931057751544
C         1.33745505384563   -4.92154256542908    1.23408004480757
C         2.51409728263018   -4.55896197751179    0.60249453886543
C         2.61541129593179   -3.31412030899569   -0.01654894746439
C         3.88925132265883   -2.95824795089038   -0.69818153831236
O         4.77985872137968   -3.74922444241097   -0.91144522794270
O         3.95998048220887   -1.67819359518839   -1.04562857432568
C         1.54070205058873   -2.43307067624938   -0.00257071352798
N        -2.72692334059587   -0.20451689525730    0.59422649422766
C        -2.47053002681781    2.79955932446004    0.07154952937537
C        -2.36490542215876    4.17442712237103    0.16384029919343
H        -2.94530742883464    8.70099383034926    2.23840118335538
H        -4.19155060123602    8.82210994581463    0.98058970778492
H        -4.67890949394569    8.63736888689692    2.69497593160834
H        -4.87010659035832    4.78618589536962    2.35617555434582
H        -5.08447303658072    2.34062270761140    2.17969514805882
H        -5.77821604324917    1.10049056343798    0.17707268343672
H        -6.30845069843114   -1.24175136792095   -0.46433527106381
H        -4.43494940221332   -2.90130066795233   -0.50908323625926
H        -2.01038224753728   -3.38777532987790   -0.16508005649338
H        -0.66079262100193   -4.33561911387232    1.73712359338458
H         1.25849344589836   -5.88123569153980    1.72004708673695
H         3.36519193690775   -5.22126293081902    0.57748194704651
H         4.79109444223011   -1.47460133818001   -1.51083412049680
H         1.60614200359774   -1.47861941859836   -0.49968835022649
H        -1.81612250355054    2.24980643466303   -0.58495478175373
H        -1.62112108438473    4.71050921601693   -0.40574391853449
Cl       -0.07975784678892    0.48855532581716   -0.93871325393665
