55
 energy: -92.952864342380 gnorm: 0.000306577326 xtb: 6.4.1 (afa7bdf)
Ir       -0.57264161041432   -1.09926221709546    1.53117080166372
C        -1.68082808048675    1.04798121287027    4.08583766181935
C        -0.61283712453446    0.27944627129300    3.39648951059962
C        -0.25608917379030   -1.07553933105477    3.74764491290099
C        -0.89622290749249   -1.87111200910964    4.83227372428373
C         0.99726343272403   -1.38372754234039    3.11807727033246
C         1.87687430545262   -2.52826152533767    3.47438305777909
C         1.34075437375324   -0.27937448813228    2.27129965892847
C         2.62007597615962   -0.08432826134695    1.54031530606483
C         0.33700250645457    0.75575448438771    2.45133263021840
C         0.48873131396195    2.14426347509455    1.93249429658028
H        -1.39151268018859    1.16296278491529    5.13117511575024
H        -2.63236384300222    0.52198857958344    4.06617378821826
H        -1.81295634776657    2.03273998547266    3.65170912438891
H        -1.96299619655350   -1.67478857444833    4.88777855824996
H        -0.73491166360280   -2.93545972730958    4.68594410416668
H        -0.45105607891581   -1.59139096363163    5.78797143786892
H         1.30726635031554   -3.43299743066453    3.66749553058710
H         2.60463281647913   -2.72903053218612    2.69503920366092
H         2.41564038634944   -2.26665423234251    4.38609531740616
H         2.44734391108958    0.42076241286957    0.59309350546027
H         3.12090247609315   -1.02899033925215    1.35160498615028
H         3.27739170239478    0.54447205478251    2.14213991357796
H        -0.39384293537457    2.74395072934924    2.12793757699846
H         0.67085643919780    2.13434395165205    0.86038843650503
H         1.34710712174441    2.61099562739963    2.41492984087849
C         4.73871901224480   -5.12798077972015   -0.02981520835642
O         3.64056224694156   -4.23085032459138   -0.01401664495343
C         2.48244064862778   -4.61760997883554    0.54679115368908
C         2.26713821595171   -5.85344033939779    1.15881170120133
C         1.02940078858016   -6.13145458350004    1.71952431354969
Cl        0.77663213613517   -7.66972013655740    2.48342308270182
C        -0.00956465140362   -5.22001422472772    1.68235666215869
C         0.21261373589246   -3.98433227951590    1.06890381896744
N        -0.81586229943505   -3.03430808712249    0.99151012515372
C        -1.98556732538904   -3.41614764031849    0.58248344682776
C        -2.98719777647670   -2.41289261618378    0.42699634827926
N        -2.62770340671415   -1.16311247529177    0.81522516453423
C        -3.45662722472954   -0.16235899484312    0.52642142132375
Br       -2.91027543620776    1.57934315111625    0.93316399576747
C        -4.69787628773949   -0.33516474779969   -0.07096474032147
C        -5.10839361845775   -1.61336040150270   -0.42139353744509
C        -4.22924594238921   -2.64967162322693   -0.17824028808798
F        -4.53915088806909   -3.90037750393030   -0.53274476847753
C         1.44585527651044   -3.67974521886491    0.51361310055918
H         4.49794095562429   -6.03968825403874   -0.58148335511709
H         5.05712996425885   -5.37971328729162    0.98478701650142
H         5.53789122669243   -4.59571376335027   -0.54101165782540
H         3.04253196878732   -6.59873425097894    1.20590156547603
H        -0.95724106578903   -5.44958064551627    2.13988650084044
H        -2.18658114473608   -4.43814288532725    0.28266742508027
H        -5.32781622343422    0.51973161590147   -0.25745682786427
H        -6.06501003834561   -1.79743767059160   -0.88374859694711
H         1.60113806849846   -2.73489555611890    0.01752738459447
Cl       -0.17301438566752   -0.50382389332407   -0.74320387283606
