57
 energy: -105.559812405403 gnorm: 0.000411280777 xtb: 6.4.1 (afa7bdf)
Ir       -0.72421865430779   -0.97181836697228    1.31929221754377
C        -1.90672345014318    1.54255380642730    3.34019334822149
C        -0.81690777797144    0.60799813224880    2.94299560585763
C        -0.59620422945837   -0.69837887938922    3.52947428127499
C        -1.40494914147633   -1.28780243451229    4.63135771550482
C         0.67971637499401   -1.17756262642431    3.07632083949229
C         1.39149269668771   -2.37234946393180    3.60467148305421
C         1.19127289712156   -0.23266675887687    2.13101157860960
C         2.55570082852290   -0.21652558457392    1.53423687799843
C         0.27481881572514    0.89704306319123    2.08621773171268
C         0.56515851634125    2.17663791476582    1.38636120883532
H        -1.57930893379520    2.10564570721378    4.21531653927271
H        -2.81307239182304    1.00767557953845    3.61149633594776
H        -2.13030856947366    2.25747374479191    2.55232790390377
H        -2.46495798365753   -1.09047808640919    4.49639667064295
H        -1.24949319104784   -2.35982429830640    4.70546091909403
H        -1.09762662479520   -0.83438035593863    5.57467920845247
H         0.70015274604044   -3.17262889698885    3.85372158747531
H         2.12415675472800   -2.74606034990611    2.89534961773380
H         1.91789682035547   -2.08621050733788    4.51596115428269
H         2.52538596735316    0.16887939675646    0.51820522867492
H         2.99931895444318   -1.20727753521480    1.52932191575514
H         3.19226139139564    0.44390665887624    2.12397543036643
H        -0.27407552098297    2.86268822801919    1.44237135960299
H         0.80064244131225    1.99620232322293    0.33905150478780
H         1.43441252143588    2.64502974245543    1.84749458463613
F         4.38979973227306   -6.15055221157639    2.00334002361720
C         3.77503130362238   -6.23425645377362    0.80322257663555
F         4.70532611882507   -5.93085644599835   -0.11335786578987
F         3.47549691048130   -7.53333000359178    0.63218605652626
C         2.56231639871654   -5.34763678410343    0.73555264691771
C         2.63201050220398   -4.10771279000003    0.10925696401255
C         1.51877981085934   -3.28899857912686    0.08921236854765
C         0.33143250453109   -3.71604330024110    0.68211957512007
N        -0.78994796402209   -2.87178893112356    0.65460236301968
C        -1.90760380327027   -3.29630295690210    0.14645351844439
C        -2.99874976050576   -2.37260759289457    0.13306357152058
C        -4.23471412524051   -2.61496218387820   -0.47575441933803
C        -5.19279848044420   -1.62363110057321   -0.47074910026132
C        -4.87817214870578   -0.40536636658744    0.14086308647596
C        -5.89016174610292    0.71069113778106    0.14124263081280
F        -5.55674024387357    1.71092175299848    0.96678613400730
F        -7.10620356380499    0.28627920653594    0.51711453099891
F        -6.03701185622182    1.25133818409473   -1.08039723295082
C        -3.63513066906817   -0.22762508069806    0.72582990425445
N        -2.71838146427219   -1.18807527176876    0.73764655063465
C         0.26366155981151   -4.96421883839189    1.30090270035140
C         1.38261741902576   -5.77464696600130    1.33601935588798
H         3.54876012572307   -3.79044038254218   -0.36271994806315
H         1.54507262311685   -2.33236399997427   -0.40893511606217
H        -1.99634108896477   -4.28345957873271   -0.29123322323756
H        -4.42112989935998   -3.56501553859813   -0.94985285744889
H        -6.15993159621991   -1.77246563822110   -0.92577595612959
H        -3.37554708438683    0.70908021446125    1.19737667353167
H        -0.65304574107602   -5.28663260333256    1.76882756011908
H         1.34230534630798   -6.73808718762770    1.81959997319973
Cl       -0.38754037747712   -0.29918186234602   -0.93983889411320
