81
 energy: -123.053394484468 gnorm: 0.000606268080 xtb: 6.4.1 (afa7bdf)
Ir       -0.21852171075690   -0.43657356959475    1.50405499237295
C        -1.70994305720234    1.78806608275049    3.65905430079881
C        -0.48473143174137    1.10213506668855    3.15298773391389
C        -0.00396093217454   -0.14346124321408    3.70240433017990
C        -0.61984923485749   -0.90464182719570    4.82629776113591
C         1.31067958641643   -0.38267931553370    3.17968721971048
C         2.23859256054881   -1.43437558309643    3.67985554777833
C         1.58914947093861    0.62610009468642    2.21785799801861
C         2.89215577305703    0.83647957154730    1.52009566143380
C         0.47507763430822    1.57075007069405    2.21325540444395
C         0.54588345085150    2.90851708623701    1.52729323448258
C        -0.64333246101184    3.23449871521002    0.61669127286452
C        -0.40152472726258    4.56522905612317   -0.09026437411106
C        -0.19913035185398    5.68497048405159    0.92787295153053
C         0.96525630860226    5.35827391381296    1.85936306495363
C         0.73172382572320    4.02606510756980    2.56653141587506
H        -2.52707259508472    1.08198509493891    3.79162426452233
H        -2.03489759711001    2.58342255630206    2.99799400886311
H        -1.48573813824389    2.22335622412886    4.63380922049465
H        -0.61800131682563   -1.97107139847306    4.61109833255898
H        -0.04275149907073   -0.73998719581966    5.73624566165174
H        -1.64325365572436   -0.59039134167179    5.00299195264529
H         1.68479871844304   -2.31186426108567    4.00219648255453
H         2.96001576174416   -1.72875882069350    2.92266609832216
H         2.78323875004826   -1.04020158960050    4.53857734622568
H         3.50917030952274   -0.05544965846359    1.57646557120426
H         2.73550354644053    1.08381826468309    0.47225954554905
H         3.42978956166554    1.66050879707494    1.98936384817077
H         1.43439783890959    2.89969032769764    0.88884671137534
H        -1.56462720618168    3.31155582148230    1.19357439925580
H        -0.76216351339952    2.43824216952953   -0.11903240243739
H        -1.25093529513928    4.79845604248565   -0.73548629679730
H         0.48354659068737    4.48617652939011   -0.72554122185768
H        -1.11084626402143    5.81101587022274    1.51672775885495
H        -0.00612634793577    6.62693239746089    0.41048124142399
H         1.08223387816890    6.15142218250353    2.60076888228042
H         1.88893110697277    5.30741477724054    1.27826519407943
H        -0.15671973731447    4.10236997497758    3.19348692488918
H         1.58073493539964    3.79319041362583    3.21205297344982
C        -0.83200845233336   -6.47149151310249    3.99387209718366
O         0.12679087622389   -5.97034630114990    3.06174890696815
C         0.11889812773728   -4.66520308813646    2.81556122361771
O        -0.66464094867901   -3.88623350231299    3.31458425274250
C         1.20443450164223   -4.26551238369339    1.87976681947680
C         2.39778051021430   -4.98141615674412    1.87811806114266
C         3.47355183763793   -4.56758490122089    1.09620751233318
O         4.65954196012890   -5.19640742026626    1.02056173436587
C         4.85803714490527   -6.39302162098328    1.75290379733774
C         3.34307222745986   -3.39849760179330    0.33125396579227
C         2.16880811665531   -2.68471761284103    0.33323112124193
C         1.07602108615016   -3.11266781640966    1.09128312944679
N        -0.12010237281992   -2.39147186402454    1.02460747939432
C        -1.21210981994947   -2.95467053780601    0.61819751981925
C        -2.37933602408969   -2.13430126306187    0.56999359140510
C        -3.62903112440943   -2.54231938891181    0.09045217445504
C        -4.66650145362700   -1.64162508583921    0.04861537143364
C        -4.44495781700544   -0.32187399773301    0.47765895274286
C        -5.47843876093783    0.67796538565528    0.45209012365734
C        -6.79549354450534    0.62399396597060    0.04276789604508
C        -7.32609890397162    1.91225312329619    0.24254043485085
C        -6.30672719594976    2.66227737414414    0.75740441954913
O        -5.19572808718362    1.93196517164564    0.88671923399927
C        -3.16564594999217    0.00622653799889    0.94430127777453
N        -2.17256830604226   -0.86397200049921    1.00142281738158
H        -0.47742958608901   -6.30225436333881    5.01204577157031
H        -0.91931056065436   -7.53619145505297    3.79554254831614
H        -1.79007867226448   -5.96757549944339    3.85902570423242
H         2.46660186334926   -5.85313923120688    2.50686951634847
H         4.78643810279575   -6.21414340305101    2.82893162109294
H         5.86645412012259   -6.71820440632325    1.50570024009478
H         4.14264579503753   -7.16317822548712    1.45415799703076
H         4.18438487239039   -3.07920540524428   -0.26228301751220
H         2.06110148846487   -1.79798134233387   -0.27185920609256
H        -1.23531325298658   -3.98788609113166    0.29149334408310
H        -3.75886200733035   -3.55740723630306   -0.24843207610741
H        -5.63563690806061   -1.93827254379933   -0.31621123307041
H        -7.31879361609923   -0.22229900718440   -0.35090432368298
H        -8.32367714704779    2.23826337205872    0.03410779209217
H        -6.26016895929709    3.69022519622608    1.05894459281734
H        -2.96147858108805    1.01498173385225    1.27039649248439
Cl        0.06096788598902   -0.02899148311792   -0.83927369052436
