78
 energy: -120.101605970665 gnorm: 0.000589662918 xtb: 6.4.1 (afa7bdf)
Ir       -0.82232584756785   -1.31919089346760    1.17938623641072
C        -1.94112659787772    1.08748181760593    3.47450362750549
C        -0.89341666609368    0.16281679354331    2.95207652854237
C        -0.80438436726042   -1.21472480353443    3.39642691379346
C        -1.72213988620674   -1.83748844885186    4.39284711349863
C         0.46690972719177   -1.73284261042004    2.98721330892557
C         1.08158207776039   -2.99634591147335    3.47788405188084
C         1.08378565446447   -0.75063410438806    2.15443215400192
C         2.47483017336002   -0.81377759212632    1.61963474026978
C         0.25851894182126    0.45211347865472    2.17679947929770
C         0.78005919790971    1.78272238952076    1.70707633541234
C        -0.14452653682868    2.58796060933755    0.78887675472330
C         0.56779562364265    3.85890800653755    0.33208232142559
C         0.97044314843761    4.70928687060135    1.53457032324100
C         1.86704046027218    3.91053683450751    2.47681564911047
C         1.16875638259822    2.63174338943688    2.93101143213272
H        -2.93744537857978    0.67133578813968    3.34142405573706
H        -1.90386306099525    2.06068870113278    3.00022226327788
H        -1.77645179069172    1.21675321441432    4.54488814220752
H        -1.66795044363490   -2.92139311304201    4.35577974938727
H        -1.43034941957957   -1.51778370090543    5.39396455884499
H        -2.74981528280801   -1.52722569774258    4.22604836422221
H         0.33381684593502   -3.76512893228020    3.65011003560362
H         1.82799462985953   -3.37608634443558    2.78637170264598
H         1.57507962684249   -2.78664287151816    4.42782388304953
H         2.83654751231021   -1.83700511413258    1.58641885125526
H         2.52708045548242   -0.39868267040710    0.61574169717188
H         3.13922953032000   -0.23557426843609    2.26222446473483
H         1.69264195202662    1.58996237132501    1.13564562500777
H        -1.05749105484516    2.87550078355577    1.31063954466383
H        -0.40809682306167    1.98270083543269   -0.07963971081964
H        -0.08850187231595    4.43184580711220   -0.32595185480080
H         1.45918914058728    3.59418320057555   -0.24129691654959
H         0.07423383503676    5.03152956263555    2.07026533650450
H         1.49388594047231    5.60574204057504    1.19657908850415
H         2.12397098306460    4.51599018432843    3.34851870160452
H         2.79705745590842    3.65817183726921    1.96216096117699
H         0.27593920636868    2.89099987475860    3.50042508078294
H         1.83082112294910    2.05974166952384    3.58374756765746
C         3.60082685266064   -7.99295733287232    0.90908357337239
C         3.59874909006194   -6.62121607543490    0.32744357555632
C         4.67885319931126   -6.11686127210945   -0.31401335131958
C         4.70967338593316   -4.78895065028085   -0.88823850468167
O         5.65321909919033   -4.29704188398105   -1.46785028472452
O         3.58001761466941   -4.02921047171724   -0.75469833226717
C         2.47461571639888   -4.50127870807210   -0.13494180904737
C         1.37543160963056   -3.64844307204856   -0.07687458765427
C         0.20284775437685   -4.07894442235847    0.52582967530808
N        -0.90974614853735   -3.22808308434650    0.55032986108668
C        -2.07261310244404   -3.69256097668401    0.21038018396487
C        -3.16609136754963   -2.77502811630437    0.19770390889801
C        -4.47061141102424   -3.14876977676484   -0.18696774448851
C        -5.45061498860906   -2.19991169196771   -0.23139752098447
C        -5.11688661886522   -0.85235344888615    0.03432503942700
C        -6.05944407054231    0.18581521783671   -0.07468989200780
C        -5.67813597096950    1.48824458654013    0.12866140035424
Cl       -6.82977059736438    2.76991849428111   -0.02481001716229
C        -4.34262735240295    1.80377148578872    0.43902335801630
C        -3.41726231424730    0.80741072093892    0.57737536832562
C        -3.77205124222633   -0.54363487219461    0.39764656377095
N        -2.84253201036079   -1.51724618693791    0.53948992400506
C         0.13704797274901   -5.35768243259144    1.09773342804250
C         1.23090219554638   -6.18814701456293    1.05402633050190
C         2.42099171904578   -5.78813665603034    0.43092307119949
H         2.82117504214047   -8.59811274556091    0.44993451089893
H         4.55960884851768   -8.47407947259021    0.74088468433076
H         3.41311995278477   -7.95043012658909    1.98035418672922
H         5.58646585861205   -6.68662585541182   -0.43377036942805
H         1.43028247436686   -2.67537517965939   -0.53791933395453
H        -2.20083458283972   -4.71568302984947   -0.12310999817422
H        -4.66930550270848   -4.17951112801585   -0.43073508100560
H        -6.46678221742598   -2.45326779326201   -0.49026352172738
H        -7.07729390452929   -0.05452332939325   -0.33739294578173
H        -4.06124819441858    2.83741187244803    0.55718723797455
H        -2.38250213778561    1.03659042298687    0.77186323200623
H        -0.76749534849336   -5.67813309820108    1.59001148488824
H         1.17135629840708   -7.16586931614907    1.50246301860472
Cl       -0.34886419732023   -0.64802956328250   -1.05877148486308
