58
 energy: -106.068320752418 gnorm: 0.000626756404 xtb: 6.4.1 (afa7bdf)
Ir       -0.36247310071117   -0.89349333844991    1.61313022566355
C        -1.96283870820907    0.84704390699854    4.16456573401610
C        -0.72493938649829    0.26510608188192    3.58841264089918
C        -0.27387135659627   -1.07615337882369    3.84799280556343
C        -0.94941490302404   -2.03706318031104    4.76394546730370
C         1.05746924568387   -1.20597052195217    3.32575535774283
C         2.01319266855610   -2.29617461233905    3.65612894860877
C         1.38163775489179    0.00794348899764    2.63445160381702
C         2.72834900027803    0.36610407734569    2.11766130320325
C         0.26692637115079    0.92582292130604    2.80466418891827
C         0.32639130605192    2.36549671384105    2.50113380457008
C         0.16339918544359    3.28591505628109    3.53442207118037
C         0.26728590438213    4.63541223994756    3.25307814245213
F         0.11443379308585    5.51789621479804    4.26082314448375
C         0.52352297047991    5.11539568605246    1.98144717819431
C         0.67918025238361    4.17515290290966    0.97801820150632
F         0.92803457288862    4.60482181705141   -0.27570735012957
C         0.59006319429921    2.81645000574798    1.21020555097713
H        -2.14202735306176    1.84981964518385    3.79195991663712
H        -1.85362332783241    0.88442777306420    5.24923367950684
H        -2.83047462914127    0.22631886043417    3.95079270550158
H        -0.63688551094340   -3.05764333326576    4.56373243098397
H        -0.67806521971047   -1.79608150250686    5.79250052964108
H        -2.03011238493487   -1.96912317870575    4.67801392445452
H         2.47573315712175   -2.05710719890349    4.61466554186927
H         1.51419305006779   -3.25590239396180    3.75444542008386
H         2.79955034211937   -2.37614362937911    2.91260320270939
H         3.18653264576369   -0.47067016489587    1.59734415131395
H         2.67867373958219    1.21747664338577    1.44603196366071
H         3.36655327217994    0.62942610741536    2.96256347328820
H        -0.01621422762284    2.96900604940323    4.54842569766985
H         0.59888642915436    6.17103054945486    1.78096757513749
H         0.69199972934638    2.12435051897747    0.38916430739805
F         3.78381349854051   -6.27920919501300    1.09522685428947
C         2.74488214561416   -5.42666416007119    1.07362635464541
C         1.52757085220167   -5.83809984087273    1.59456182193739
C         0.45754979617823   -4.96560502311158    1.55774986717712
C         0.61755164931945   -3.68518341711188    1.02254776015124
N        -0.46396200706662   -2.79501471242170    0.94907904940988
C        -1.59360905950697   -3.21768771328369    0.47337127846087
C        -2.64099039772371   -2.25923583702417    0.31571410320893
N        -2.34633492770805   -1.00549058883632    0.74072366212590
C        -3.20680912381840   -0.02894867983262    0.46589282280229
Br       -2.72392279927019    1.73374957743801    0.91595016097677
C        -4.43315785233864   -0.24338793621417   -0.15382705364536
C        -4.78006909273117   -1.52731023260849   -0.54391683002844
C        -3.85937258763643   -2.53421429951668   -0.31831700072684
F        -4.10977373268678   -3.78387024308344   -0.70961985714152
C         1.85824769771801   -3.28356315928516    0.52411178735630
C         2.92473058730743   -4.16133690282214    0.53583718516773
H         1.42981370618111   -6.82688725099232    2.01264284019082
H        -0.49502820793293   -5.26387528573309    1.96751832504504
H        -1.72708044926814   -4.23471276935891    0.12206463297692
H        -5.09841721495952    0.58767871411230   -0.32478509673231
H        -5.72182269886848   -1.74042522878576   -1.02477554034135
H         1.95724304557825   -2.29981090371047    0.09107144103214
H         3.88538638034118   -3.88311491539480    0.13267459445184
Cl        0.23227931590107   -0.22950982343219   -0.59400070161272
