68
 energy: -107.934426057912 gnorm: 0.000624879481 xtb: 6.4.1 (afa7bdf)
Ir       -0.43998072916186   -0.65734984656766    1.89435317001412
C        -2.26487381848641    1.93364754399982    3.48790443563421
C        -1.12146681446804    0.98928337992691    3.36758778601717
C        -1.15354688958240   -0.32072047645669    3.99600811902500
C        -2.32586790561548   -0.89185131498261    4.71697103396113
C         0.17986179531332   -0.80878075323539    4.09305188666975
C         0.58788962987488   -1.92788584065199    4.98923808654060
C         1.02159476678955    0.09301481170626    3.34761014329711
C         2.51288559535595    0.07520020060688    3.30271646066920
C         0.21251001235422    1.24710531658450    2.96039481556777
C         0.82491534293287    2.53102589471849    2.47865220212011
C         0.17183456379679    3.16157408798274    1.24542954261964
C         0.95880675693446    4.40030242431006    0.82723027702585
C         1.00633448854889    5.41555824094007    1.96639586256258
C         1.62267392528388    4.79053724244816    3.21494030633813
C         0.84413798431630    3.54725515126507    3.63500525938027
H        -3.21250519521305    1.44408599006028    3.28013103447323
H        -2.16590130992268    2.79371404362892    2.83725760706546
H        -2.29612682575115    2.28085771895124    4.52222819306561
H        -2.23765654643515   -1.96999492132337    4.81584429215114
H        -2.37155441926105   -0.46057618115757    5.71801539801176
H        -3.25759494556149   -0.65541209819444    4.21072593672026
H         0.24127518978936   -1.69328166506770    5.99633131896245
H         0.13109227387980   -2.87316516384488    4.70258906157322
H         1.66679073508396   -2.04340446124318    5.02471607654893
H         2.91638454576565   -0.87813319166211    3.62628638014442
H         2.86805857841144    0.27226000343575    2.29401762681418
H         2.90003564183556    0.85549165308958    3.95796526557318
H         1.86212378892732    2.31625191112727    2.20616381406424
H        -0.85680849114669    3.45475451271367    1.45094655428563
H         0.16266634135279    2.43461685466224    0.43375265370647
H         0.49216007302121    4.84962836981817   -0.05134548023670
H         1.97628137833704    4.11396221637771    0.55104405320556
H        -0.00708505271281    5.75507512504199    2.19131518948423
H         1.58865792304378    6.28779464084926    1.66310201716143
H         1.62197400951355    5.51469095245735    4.03192876062530
H         2.66124901964095    4.52193823200168    3.00885662726331
H        -0.17625158267105    3.83041259695676    3.89178958278715
H         1.30585504757371    3.10029255736138    4.51729374618596
C         5.61972000563235   -3.98686790015077    2.62952418026301
O         4.28062026023577   -3.56013400078287    2.81982981900808
C         3.42576191952307   -3.59887929232463    1.78050288373013
C         3.73874457431902   -4.04286749165992    0.49463979754432
C         2.76703171411248   -4.03818927508100   -0.49143400436307
C         1.49041694678374   -3.60561613730029   -0.20528916928874
F         0.55946188382429   -3.59932645530427   -1.18688125352475
C         1.15156778869270   -3.13096810348149    1.07173162880571
N        -0.11934370809023   -2.58858517237699    1.29091162765524
C        -1.14901153491544   -3.23674392569587    0.84356566917811
C        -2.35989494670094   -2.51166506394867    0.61691348350490
N        -2.26440520685114   -1.17102559555891    0.78787907186251
C        -3.24109754076883   -0.40965839513494    0.30711442573945
Br       -2.97827018080656    1.44672388476278    0.28342871187513
C        -4.41841977518799   -0.91974250828295   -0.23030415456685
C        -4.57876985901689   -2.29336662811641   -0.31990420756490
C        -3.51839859663697   -3.08641438115301    0.08084163388679
F        -3.57708137676028   -4.41367603060868   -0.05074253879170
C         2.13386631449369   -3.14338762107488    2.04860028972482
H         6.10180567975172   -3.86069236809351    3.59639430540626
H         5.66274571010533   -5.03775201098727    2.33495479395161
H         6.12791974453157   -3.36969979580844    1.88513190544371
H         4.72789651898021   -4.39079346064306    0.24886424281403
H         2.99210945957072   -4.37292511715170   -1.49152727069900
H        -1.09053674139715   -4.27333599388308    0.52858079470162
H        -5.18540715220082   -0.24558359680894   -0.57653989534179
H        -5.47666644123323   -2.73718247535732   -0.71976979374756
H         1.89910095864806   -2.82169954323607    3.04510686682814
Cl        0.53864969968620   -0.13309030340392   -0.21038894105821
