79
 energy: -131.818283541008 gnorm: 0.000968495020 xtb: 6.4.1 (afa7bdf)
Ir       -1.01990686733296   -0.93584466133486    1.33053340833402
C        -2.24553963448152    0.85779968705318    3.96817271023133
C        -1.07134217593498    0.25851130684445    3.27512382483022
C        -0.57312035382556   -1.06643206759237    3.51284166730859
C        -1.09248851333351   -2.00829292184174    4.54492862051216
C         0.67655774889811   -1.20170818462453    2.80760965603895
C         1.67374894694465   -2.29076849393489    2.99934227841243
C         0.90039833016430   -0.01100959310337    2.06552485459825
C         2.16059088592602    0.32090524546037    1.34637886691955
C        -0.19473361918062    0.90140383303467    2.34548823554811
C        -0.18779433995795    2.33082483009826    1.99631298689734
C        -0.27584166737902    3.28343342879730    3.01018676203406
C        -0.22339421419097    4.62387300206199    2.67870458225316
F        -0.30546051297374    5.53755187634371    3.66754775324465
C        -0.09040450811088    5.06581568985846    1.37448669781728
C        -0.00656851915953    4.09593976767052    0.39045368612906
F         0.12018286564577    4.48991571911342   -0.89289277394652
C        -0.05073051716735    2.74388658132583    0.67135833433747
H        -2.55287932377979    1.78670063840631    3.49728732173617
H        -1.97661392211826    1.06087669935635    5.00524129350046
H        -3.08768191064999    0.17004485043257    3.97801093983394
H        -0.81739981901824   -3.03304218866219    4.31251662951923
H        -0.65697906157717   -1.75251925964490    5.51155764717974
H        -2.17277969551094   -1.93794322366534    4.63308988556253
H         2.31870216344578   -2.02399452116994    3.83757694209643
H         1.19625902799674   -3.23939067135859    3.22691138420494
H         2.29827578945041   -2.40822709225291    2.11833052209644
H         2.38703192945915   -0.42205222990964    0.58433834713024
H         2.09679956865622    1.29434633002030    0.86967277342439
H         2.98649325039842    0.33068825108123    2.05815698917340
H        -0.35665484357845    2.99580080178073    4.04516380635108
H        -0.05160528445047    6.11546370289651    1.13589361870761
H        -0.00666318719753    2.02649947079596   -0.13413652741687
C        -8.27954639789238    4.75709389965208   -0.03845924709250
C        -7.74925255953845    3.33288942784101   -0.00474350800255
O        -6.36004820280588    3.39394959178517    0.30604908587137
C        -5.64715852745460    2.27003256909795    0.39778615721128
C        -4.26738002427883    2.45047308481780    0.68542402945383
C        -3.42901746224254    1.38821615113162    0.82294377949561
C        -3.89770356613870    0.06517132233563    0.67054374042498
N        -3.06003502321986   -0.98474963593685    0.80286901498941
C        -3.51049722578154   -2.22062002707550    0.51883445200932
C        -2.50662047085820   -3.23405423955565    0.52314903093328
N        -1.29402063531858   -2.86620861657394    0.79713053245370
C        -0.25725067396890   -3.80755978266589    0.75720876582640
C        -0.38898173545946   -5.04547720403995    1.40070022831217
C         0.63320024276301   -5.96264232156385    1.34215621623352
C         1.81138159572729   -5.69207621685433    0.63298022304462
C         2.91547661410963   -6.61913866081428    0.51604326419319
C         2.84978961674419   -7.95076097595836    1.18054071103983
C         3.99235266871813   -6.23597896470735   -0.20893278120711
C         4.08986483068645   -4.94809828801373   -0.86045674828239
O         5.03341087828311   -4.56208143002164   -1.51558838943158
O         3.02884301154960   -4.09655011206894   -0.71380462701462
C         1.92966074259708   -4.44609929604127   -0.00812948669474
C         0.90586514560863   -3.50564388643994    0.06488615415567
C        -4.85571770391608   -2.47857059932748    0.18686560382884
C        -5.73871788353667   -1.44027201255391    0.12461664145161
C        -5.27681017482714   -0.12233233795858    0.34143595329525
C        -6.12843774554529    0.98582764329474    0.22618575140074
H        -9.33894624101728    4.74676112139590   -0.27642322236990
H        -8.13685549701542    5.23334008542844    0.92745977149058
H        -7.75227406279674    5.33515682235587   -0.79233317098978
H        -7.88536554035978    2.85126399306843   -0.98075297429133
H        -8.27147702455934    2.74871869679416    0.76255821957065
H        -3.90681530317518    3.46176290820514    0.78180329390599
H        -2.37891098338133    1.54714309077959    0.99984684416491
H        -2.74030913050783   -4.25264017226526    0.23587997636391
H        -1.28545367639729   -5.26558519550751    1.95856636198286
H         0.52454292424611   -6.90886193549558    1.84536646152622
H         3.75552207964275   -8.51675562359946    0.98512256586226
H         2.73742151425501   -7.82997671928292    2.25622705545942
H         1.99690937269618   -8.51626490837649    0.81023623503959
H         4.84742146628495   -6.87963796572289   -0.34132439623975
H         1.00729231610508   -2.56416554896928   -0.45135786974585
H        -5.15930646683274   -3.49286564331616   -0.01270597916387
H        -6.77872702804525   -1.60505656583791   -0.11043300112469
H        -7.16242907285301    0.80222855634687   -0.01649643721748
Cl       -0.64684099638446   -0.42218568112048   -0.96353800672382
