60
 energy: -104.513120996605 gnorm: 0.000729168723 xtb: 6.4.1 (afa7bdf)
Ir       -0.13440949368746   -0.93882920770745    1.28149961940850
C        -1.68136754823031    0.77808412269655    3.77291857434756
C        -0.42105249791157    0.23562381268283    3.19598863784536
C         0.14953881774356   -1.04047274956474    3.50061563824870
C        -0.38968653398344   -2.00777585414055    4.49543929087290
C         1.45628342469906   -1.10526175993053    2.88618626786175
C         2.48592997994212   -2.14147593288663    3.17792050204626
C         1.65920253428845    0.09032801114187    2.14845278357867
C         2.92640380978820    0.52605643994644    1.50536236684864
C         0.47102327838293    0.91634948896916    2.30433434763037
C         0.38540286810480    2.33726636471346    1.92130129209490
C         0.27377787007545    3.29941507026970    2.92331183617387
C         0.23938242977757    4.63505502790877    2.56925302333618
F         0.13614946136198    5.55949943864762    3.54518931970801
C         0.30588710572765    5.05996468200395    1.25429540902166
C         0.41090210915019    4.07911944388175    0.28344609994016
F         0.47293182263980    4.45511251062937   -1.00945948492067
C         0.45099398942900    2.73137963139158    0.58770429424779
H        -1.97990354129688    1.69480294100073    3.27225576626455
H        -1.51875266880184    0.99903212430883    4.82836060748790
H        -2.49041951425379    0.05369133822917    3.71298144873760
H        -0.06044610399695   -3.02036943536107    4.27989558396920
H        -0.02057795912859   -1.73852322933556    5.48588713832507
H        -1.47513553774122   -1.98027079468132    4.52213579847390
H         3.02251888396624   -1.85188197230974    4.08222725641040
H         2.03506765705363   -3.11478348324091    3.35089176368644
H         3.20754238681584   -2.22302063512551    2.37063522071103
H         3.48139961795854   -0.32090980938707    1.11163568664766
H         2.73518749678013    1.22873939230765    0.69973315453648
H         3.54712939810423    1.02332115013623    2.25185439295498
H         0.23786373338466    3.02462962879925    3.96469446713133
H         0.27923654428581    6.10597486578937    0.99825341371763
H         0.51689764020796    2.00256046418453   -0.20519528200856
O         3.33459558864151   -7.81626433960237    1.52168268247390
N         3.61702746209186   -6.74287088300468    1.02408524907644
O         4.71887589641396   -6.45975585793544    0.59358014647615
C         2.58456420466498   -5.74722012429458    0.93900830545203
C         1.31738091709159   -6.03017429974713    1.44118681149192
C         0.32261170890805   -5.07823777483539    1.34758910889237
C         0.59980154858181   -3.83986048473132    0.76245142466703
N        -0.39835264613080   -2.86215480646240    0.66008255427539
C        -1.53230456852221   -3.14385476463524    0.10087576950803
C        -2.48642902110344   -2.07790563951477    0.01133395790531
C        -3.73814268822061   -2.18064751211026   -0.59601260622140
C        -4.54931087787555   -1.06155571667373   -0.65140664481024
C        -4.08195187858432    0.13111517766965   -0.10981730439187
C        -2.82765157257796    0.16392521583056    0.47669838310191
N        -2.04962533531963   -0.91187832344175    0.55230256422714
C         1.87771808551619   -3.55969691033535    0.27289729353675
C         2.86785682974564   -4.51630438312223    0.35201291012469
H         1.13087649647327   -6.99326376108853    1.89065045412739
H        -0.66168456709533   -5.28063428944689    1.73999954421141
H        -1.73329706384000   -4.11992277300917   -0.32528742396966
H        -4.05102437004381   -3.12297734518622   -1.01665364305737
H        -5.52282802818310   -1.11134446408397   -1.11316441182781
H        -4.67931878442388    1.02777248098552   -0.13888224223680
H        -2.43450091013831    1.07893671901541    0.89400836550657
H         2.06367809769514   -2.60464543730403   -0.19413049666507
H         3.85817825327997   -4.33210278727663   -0.03439713281411
Cl        0.48876876231833   -0.48264900158511   -0.97440985440085
