76
 energy: -116.679228865230 gnorm: 0.000448324337 xtb: 6.4.1 (afa7bdf)
Ir       -0.53689631893043   -1.04282925352446    1.58648217006854
C        -1.71805394559826    0.84853798994806    4.20515038634499
C        -0.58320212074943    0.21760926031499    3.47408339218997
C        -0.11011248150756   -1.11141630485552    3.77436358654500
C        -0.65413010649082   -1.99408398389015    4.84398094001084
C         1.14263834980736   -1.30602632161302    3.09258776460101
C         2.07653166855486   -2.43961158645555    3.33590538346529
C         1.38285359104954   -0.15878381613666    2.28842308541824
C         2.62573931716226    0.13209771560279    1.51883082302096
C         0.30376968997308    0.79836487485963    2.52034380315230
C         0.36730587205673    2.22152921654645    2.03624613605386
C        -0.89171938460248    2.71864570788372    1.31730593732749
C        -0.65395613375265    4.12935334071116    0.78502403030690
C        -0.29592124117486    5.07839890641374    1.92647376972292
C         0.93750150136849    4.57713087533312    2.67345130412978
C         0.71157720867275    3.16325536388080    3.20214900713306
H        -2.56433342486437    0.16959111746964    4.28304934066864
H        -2.04258523289052    1.77229280103367    3.74086705519851
H        -1.38454815453330    1.07474927371907    5.21875874144698
H        -0.42364844149597   -3.03718676209898    4.64725254625706
H        -0.19717078046416   -1.72123191911366    5.79606283684819
H        -1.72970901878504   -1.88086488994765    4.94197589698131
H         1.53751983555393   -3.35899128880288    3.54689428141670
H         2.73278401767052   -2.60654272157188    2.48704841589232
H         2.69057476618283   -2.19834806423533    4.20409643163095
H         3.24195628082730   -0.75620879866733    1.42049182723206
H         2.38764245181409    0.50430784458433    0.52440688289226
H         3.20114096951484    0.89777229505899    2.03924095834815
H         1.18354965001787    2.28083460758754    1.31055715501537
H        -1.74261988339270    2.74882409769923    1.99763540699912
H        -1.12525146223680    2.04343789261318    0.49287967297656
H        -1.55008737989383    4.48517073681999    0.27294828727627
H         0.15877125821402    4.11413082024820    0.05551099761120
H        -1.13747950354152    5.14943825871249    2.61976998351733
H        -0.10818378413346    6.07883371704521    1.53179367777784
H         1.16576915752525    5.24638393281214    3.50533910097126
H         1.79550404603200    4.58315224467656    1.99737784467219
H        -0.10389025803701    3.17542861300107    3.92514663568898
H         1.60931153659616    2.80916592611252    3.71186369490489
C        -8.58790226658092   -0.70533781350023   -0.77814054607095
O        -7.24997043703322   -0.63484165943455   -0.28471090844899
C        -6.49502191649928   -1.71528947053556   -0.42254071549458
O        -6.85399275350802   -2.75012094154149   -0.93225950108147
C        -5.11720924724916   -1.50992169579738    0.12776210911760
C        -4.73606071575261   -0.33349525735462    0.77882676475395
C        -3.44335193591903   -0.22075758150592    1.25394265135510
N        -2.53881579091919   -1.19014241131293    1.12636250215810
C        -2.89541472908066   -2.33491527698076    0.48795534181917
C        -1.82929042696358   -3.28219514356046    0.36048582804938
N        -0.67416661605264   -2.92038560451130    0.82178567940492
C         0.42384793519537   -3.78675991668223    0.71811084748785
C         0.33564031028148   -5.09801164832996    1.18919659948068
C         1.43030492726083   -5.93686119378810    1.07976699091495
C         2.59123001925693   -5.47116511236132    0.49068490854713
S         4.00989933247969   -6.57387653294002    0.34892654359397
C         4.98969581338960   -6.20860396683591    1.82789168224365
O         3.53588422479597   -7.93510008983611    0.42408197151396
O         4.76743369172453   -6.19682984439638   -0.82033340681833
C         2.68642613551832   -4.17588555338149    0.01354008093006
C         1.60445468274796   -3.32308094708780    0.13565342707132
C        -4.18020956015083   -2.52166992312269   -0.01901558022857
H        -8.59454269525365   -1.09035098337138   -1.79901273211155
H        -8.97313548518769    0.30968428961595   -0.74350692090748
H        -9.18416518816003   -1.36565879880133   -0.14649218219859
H        -5.43908026383630    0.47229716332050    0.90854979827491
H        -3.11813539269542    0.68005846466984    1.75164513777038
H        -1.97673822362274   -4.23057990457958   -0.14267848812443
H        -0.57615526753042   -5.44453603188577    1.65066545465695
H         1.39506805146663   -6.95770439873566    1.42476513718847
H         4.38165187393910   -6.42929006799370    2.69497744683599
H         5.27832697465214   -5.16665201231283    1.79023791002272
H         5.86539550463809   -6.84574978060636    1.80566443746814
H         3.59942843560952   -3.86045490468192   -0.46561427088005
H         1.64158225689843   -2.31430641540501   -0.24630259000592
H        -4.44830711904151   -3.43382794229099   -0.52917682845628
Cl       -0.28452325038979   -0.32733981194012   -0.67995777147266
