72
 energy: -111.953029811006 gnorm: 0.000280239917 xtb: 6.4.1 (afa7bdf)
Ir        0.03069579020270   -0.73266192477816    1.02452629356851
C        -1.17875168480545    0.63303712583951    3.83246432250298
C         0.00773820192122    0.16307332170061    3.06180049585304
C         0.60638684411282   -1.13092881090706    3.15512850020988
C         1.79659831931540   -1.13235553339888    2.34470603399758
C         2.84545349296583   -2.19261951180496    2.33930781937204
C         1.96072658008346    0.17862079996798    1.79335210843223
C         0.83139980963821    0.97167669026900    2.18968557433066
C         0.69106581501462    2.41325607234970    1.94396173985624
C         0.51632858664119    3.30015371740217    3.00501429277096
C         0.41738930211278    4.65730768883440    2.77144340933334
C         0.48966959950695    5.16982663020707    1.47681227215706
C         0.38672305311927    6.61641523392974    1.23386275912951
C         1.21618012021743    7.23990116028086    0.30372843141811
C         1.12314667330656    8.60118483358271    0.07931302970538
C         0.19564239674091    9.36038684030041    0.77419338984794
C        -0.63703779820076    8.74985674988654    1.69804527671430
C        -0.54093849167438    7.38987308062691    1.92900862424133
C         0.66487172422259    4.27884926263851    0.41868317189727
C         0.76545909117380    2.92094487905867    0.64629607757760
C         3.15936396704905    0.65723057278591    1.05617446842601
C         0.17678161640938   -2.23432079811160    4.05879746132541
H        -0.87825114786017    0.85148415634935    4.85769015196162
H        -1.95155305849336   -0.13102253387294    3.87121843928152
H        -1.59323627449230    1.53689955956050    3.39451822998331
H         3.58026167771441   -1.96975089893740    3.11417561439032
H         3.36038087192748   -2.22609819495726    1.38345972633777
H         2.41796197221461   -3.16955907044793    2.54463764645050
H         0.48968946415816    2.92838450964449    4.01717197075496
H         0.30640903151259    5.33396436284095    3.60530781491345
H         1.95425320666447    6.65861692124233   -0.22978293967656
H         1.77743198553275    9.07329004662457   -0.63931848425212
H         0.12322127713017   10.42353521558373    0.59731457896721
H        -1.36413634084200    9.33732870663620    2.23990339087960
H        -1.20391649991492    6.92034230878648    2.64096150633930
H         0.70475169030636    4.65356050113252   -0.59295720359938
H         0.88491086462646    2.24078100634256   -0.18479304544781
H         3.19937539414290    0.22652955948249    0.05616281933176
H         3.14166694110212    1.73993179545622    0.96169900334735
H         4.05932791447791    0.35279939480818    1.58809936039027
H        -0.86727313027374   -2.13124516806593    4.33932097252196
H         0.32688818471210   -3.20584937169762    3.59282674423098
H         0.77849833315825   -2.20221541592399    4.96756128626609
C         3.76065599503954   -6.39447250355184   -0.16973327012568
O         3.02969442884458   -5.18292312173884   -0.24648147654054
C         1.80273735310356   -5.12109684179651    0.29633688547052
C         1.18180529047963   -6.16416010811820    0.98517321940408
C        -0.09024771502876   -5.96034194512279    1.48950640858498
F        -0.68101764054172   -6.97168014044447    2.16099982892435
C        -0.78447593045563   -4.77671793847191    1.34087110011326
C        -0.14756686308842   -3.73767365550655    0.65894437678029
N        -0.79896717695648   -2.50675865657471    0.48264158706514
C        -1.98066809166558   -2.46761384978495   -0.04220228692839
C        -2.58437457886324   -1.17328486221938   -0.18421046262965
C        -3.82107946715001   -0.93914281192087   -0.78635875012050
C        -4.28241110170957    0.36085599547929   -0.88293127865279
C        -3.49265048549942    1.39016940940602   -0.38217919589748
C        -2.27333493433431    1.08604896536802    0.19954965553484
N        -1.82855025840463   -0.16148815660203    0.30812143980668
C         1.13079341065221   -3.90308248987821    0.15100971127346
H         4.69239245468409   -6.20328464116879   -0.69753996864786
H         3.22552140329855   -7.21134135179188   -0.66015392242576
H         3.97693941765392   -6.66183264795436    0.86766074279793
H         1.65294778052538   -7.12046082472189    1.13756005408177
H        -1.76971587277824   -4.66203031390882    1.76068838115890
H        -2.48158203111336   -3.36257668345567   -0.39271538907596
H        -4.39124868573424   -1.76894305745143   -1.17226240039891
H        -5.23500094370207    0.57283094487764   -1.34210980663192
H        -3.81440493988057    2.41704286932681   -0.43921993162515
H        -1.63332818171987    1.86707606061697    0.58566011894688
H         1.60410312180267   -3.10318874535021   -0.39458230779277
Cl        0.73992087590616   -0.51517236864370   -1.23272119864094
