72
 energy: -110.963264426559 gnorm: 0.000480411501 xtb: 6.4.1 (afa7bdf)
Ir       -0.68563168960492   -0.85310740863124    1.62780491516413
C        -1.75856245834674    1.39013107267811    4.19088432354744
C        -0.76440220738649    0.49809724703670    3.53415134261108
C        -0.67794177873040   -0.91495345769227    3.86136959708078
C        -1.59617336404342   -1.62138170799059    4.79936150711172
C         0.57919995168793   -1.40347589188639    3.40172658623303
C         1.20225028591391   -2.69555287960368    3.79971846325270
C         1.18966819389300   -0.35768828156136    2.62740581430176
C         2.58283436101830   -0.37940966435634    2.09537650965004
C         0.37329221373239    0.84434240994227    2.76671211569597
C         0.86896288776955    2.20560701368914    2.36742543834720
C        -0.09424309883936    3.02844560816327    1.50723926261144
C         0.56725703805717    4.34310402076677    1.10432168989533
C         0.97250156398944    5.14012327708634    2.34165591686526
C         1.91390857669521    4.32027934144533    3.21967605096228
C         1.26004661441351    3.00227822878853    3.62427662417965
H        -2.74941321982674    0.94393768856038    4.20126362981093
H        -1.82015583858374    2.36147629311797    3.71578207085342
H        -1.44840396830548    1.52565886680291    5.22840337999995
H        -1.54191344893158   -2.69834311951554    4.66634012795671
H        -1.30809240671713   -1.38993050381706    5.82535120595253
H        -2.62486930156861   -1.30041514436237    4.65967406190744
H         0.46131657175402   -3.48506962372207    3.89669372906024
H         1.96686675756383   -3.00912857198845    3.09511845303345
H         1.67286413023069   -2.55891983134662    4.77430169072599
H         2.93350796332805   -1.39765392489978    1.95857063620528
H         2.64517992298569    0.13691741923546    1.14080906281865
H         3.24504983194356    0.12380176605266    2.80040109363001
H         1.77579803820038    2.06235642210631    1.77260626941460
H        -1.01128585830307    3.24909157394629    2.05190607330930
H        -0.35797605243861    2.45684448576589    0.61713981112252
H        -0.12438284507688    4.92826903534619    0.49542125362709
H         1.45219796129541    4.13870408273392    0.49694673617765
H         0.07877425140740    5.40312233492260    2.91203305268618
H         1.46066822358827    6.06963357560544    2.04190409884481
H         2.17628888000999    4.88784821024354    4.11477675865905
H         2.83678750582150    4.12025792031227    2.67049911769615
H         0.37241202758335    3.21051941068847    4.22066350948814
H         1.94986220656973    2.41603678462092    4.23422941790703
C         5.03505650813169   -3.85103387483513   -0.80235345215596
O         3.83152767901793   -3.13004564544135   -0.60357110266614
C         2.79701654524521   -3.73432252593547    0.01063462297281
C         2.81579408622602   -5.03081569638425    0.52956461934077
C         1.68940092980095   -5.54908292695477    1.14670491582370
C         0.54198627794013   -4.79037831563405    1.23546963579755
F        -0.54961681174207   -5.29885596461756    1.85750422296933
C         0.49576389566532   -3.48594666594028    0.73095514222772
N        -0.66773401133885   -2.70581765425033    0.81292985550523
C        -1.79000298573066   -3.20263434022180    0.40611785607690
C        -2.94581182655943   -2.36481570384136    0.41495387144330
C        -4.16775589323409   -2.74963609743092   -0.13597285268664
C        -5.20090980187699   -1.84016226281444   -0.22506037367819
C        -4.98077467309587   -0.53152964189976    0.21286408633682
O        -5.84365364307724    0.47616676704429    0.16803905655442
C        -7.14657406295901    0.26341391572752   -0.35675653648024
C        -3.71626711179841   -0.23470156898604    0.76877942168917
Br       -3.44893963852483    1.53921655875665    1.30264747840050
N        -2.74325144407844   -1.11306696125782    0.90590052200743
C         1.63282027411004   -2.96949002991252    0.12840895836990
H         5.49395478167592   -4.12706482468714    0.15035046213178
H         5.69297888122218   -3.17003792892458   -1.33792318785157
H         4.86593108612306   -4.74508498105357   -1.40749215292163
H         3.69775390461717   -5.64489176362461    0.46006364732639
H         1.69472191879111   -6.54600093180489    1.55699871574639
H        -1.85605247438396   -4.20202725433193   -0.00931732227256
H        -4.29126509419906   -3.75645206038424   -0.50008979869909
H        -6.14879283940092   -2.13060008249430   -0.64714659592828
H        -7.68559709815048   -0.48448958765746    0.22846632644597
H        -7.10129592849878   -0.03888967797661   -1.40516181551737
H        -7.64785080900167    1.22503438796862   -0.27433816782328
H         1.60818242731614   -1.97484630711399   -0.28636526203710
Cl       -0.34998847091864   -0.00799143132964   -0.57185219485956
