74
 energy: -132.177611603166 gnorm: 0.000250474844 xtb: 6.4.1 (afa7bdf)
Ir        0.19742967402397   -0.83341473506894    1.51101175962768
C        -1.11175561941117    0.34787144073943    4.35228030927094
C         0.10543304380055   -0.01161459169138    3.57453896809336
C         0.78907954468164   -1.26566746403016    3.63076994315079
C         1.97030958829177   -1.16560166245478    2.81109719364299
C         3.08474353890223   -2.15471570817454    2.76414529931749
C         2.06085672348282    0.18591192107826    2.32253312657536
C         0.88464527155920    0.88454950683882    2.74176999162002
C         0.62497262518295    2.31107595262449    2.51254838235043
C         0.30748679418510    3.16268481857826    3.57002608310318
C         0.08352308127527    4.50538298895909    3.34069543694089
C         0.16870837428287    5.03907261125564    2.05533874639460
C        -0.06451097602165    6.47094474452796    1.81941036256462
C         0.76318558823860    7.19169422930712    0.96090262023479
C         0.55066156272642    8.54171274693790    0.74984400679324
C        -0.49676539890674    9.18954441483613    1.38477923033536
C        -1.33008564025090    8.47985137860875    2.23433747295832
C        -1.11368602001518    7.13202217991820    2.45460566199046
C         0.48886215964270    4.18524126167457    1.00077836235252
C         0.71449644333570    2.84199404043615    1.22346400308644
C         3.23542525237159    0.76278610872140    1.62237315304762
C         0.43173800244338   -2.42141011142833    4.49636593673905
H        -0.82432608628101    0.57906547902525    5.37876108979887
H        -1.81531505828454   -0.48040604118574    4.38765574672878
H        -1.60448920106382    1.21922868289810    3.92909349887740
H         3.76808048616401   -1.95373049681983    3.59018008669546
H         3.64031271973352   -2.06751887634261    1.83525894532188
H         2.71862838467290   -3.17192191887058    2.86768924346991
H         0.27059724150871    2.78002264502046    4.57718957229372
H        -0.13840198646247    5.15749973863563    4.17160842354064
H         1.59134593883960    6.69690419489296    0.47466912867466
H         1.20465225026577    9.09223268452132    0.08916213505045
H        -0.66325734512525   10.24349287857845    1.21758389025177
H        -2.15117017431778    8.97999101418917    2.72696115527552
H        -1.77720462822951    6.58069661648477    3.10469680525624
H         0.54213774379225    4.57544228474391   -0.00425238607984
H         0.94193019427173    2.19047194378013    0.39203594204970
H         4.14492388160457    0.47962182942816    2.14973008520046
H         3.30811374989121    0.38216927686433    0.60382267326833
H         3.16192193481170    1.84613057095530    1.57893967823064
H        -0.63213755494261   -2.44147343060355    4.71260056445673
H         0.72479610774877   -3.36246794557347    4.03813058868511
H         0.96708225756772   -2.32823785825075    5.44194404320664
F         2.76259538526408   -7.60506682908794    2.66613067928065
C         2.11891630023889   -7.54391818231416    1.47952548513984
F         3.05286991289829   -7.75467333848429    0.53975196045331
F         1.29675102607975   -8.60535617005848    1.44984584326675
C         1.39275027788429   -6.23852094665152    1.30593069381863
C         2.02925909995429   -5.17014468188923    0.68251253770384
C         1.37192900589662   -3.96143696401236    0.55741526488669
C         0.07129982115586   -3.82467933816792    1.04060874496716
N        -0.59013271621876   -2.59512558897737    0.88835681086298
C        -1.73943524491950   -2.55364805837180    0.28628832889512
C        -2.35821092718236   -1.26912023251879    0.15104930881626
C        -3.55352215358720   -1.03119890924048   -0.53421992935573
C        -4.03835744914931    0.25878289516807   -0.61421749384443
C        -3.30258401285373    1.27858341088687   -0.00497760490199
C        -3.75856592075471    2.71322864616498   -0.06842772404950
F        -3.40456474449157    3.40291931804949    1.02565290516068
F        -5.08711280060253    2.82453154423482   -0.18724903336721
F        -3.22269565202513    3.36153443007120   -1.11735618704202
C        -2.11838808524182    0.97837788097335    0.65049520705566
N        -1.65956199859598   -0.26262626750009    0.73617112517869
C        -0.56328203931404   -4.89904364336547    1.66420179935982
C         0.10188960039087   -6.10278470980737    1.80510189575413
H         3.02883700448397   -5.28806008952046    0.29458054441659
H         1.84006799190859   -3.12660793448095    0.05970497143924
H        -2.19521612842837   -3.44267978908831   -0.13355825148335
H        -4.08121376896328   -1.85033067677340   -0.99634342567215
H        -4.96026926705765    0.48172086348183   -1.12894469517455
H        -1.53114972253154    1.76101158599250    1.11351628250687
H        -1.56209577080805   -4.78387785969007    2.05429369789616
H        -0.37971261847633   -6.93727854196072    2.29036046795029
Cl        0.97996612538727   -0.55267416754884   -0.70911117046562
