80
 energy: -123.032219720914 gnorm: 0.000274314983 xtb: 6.4.1 (afa7bdf)
Ir       -0.77034057289556   -1.06526597674388    1.19865372155805
C        -2.04332771397774    1.52556675081173    3.22008199954559
C        -0.97102464681178    0.56159637967037    2.83507532746802
C        -0.90051887569460   -0.76428046481672    3.41955119559040
C        -1.87401984324868   -1.29570026742258    4.41719699264978
C         0.40372576836072   -1.29319107800342    3.16131054751284
C         1.04938585910222   -2.41648650808483    3.88914934756285
C         1.05304029394479   -0.40591102091473    2.24958146437054
C         2.46519258458573   -0.53691338143381    1.78543877630448
C         0.22475661133159    0.78861816854996    2.10615968551876
C         0.77719009312566    2.07510483392117    1.55541818261471
C        -0.09766641442145    2.81614687316297    0.53996169321194
C         0.64188091653381    4.05008550847295    0.02825799472123
C         0.99502348110357    4.98223602670777    1.18438262928549
C         1.84684735919383    4.24955858310270    2.21710166500054
C         1.12207998331617    3.00853184823184    2.73039737286223
H        -3.03304934167601    1.10233946099076    3.06266439964105
H        -1.97339121285646    2.45899066957650    2.67494655975468
H        -1.93913809613491    1.73859678122013    4.28478140612281
H        -1.83994149782697   -2.38047846824915    4.46282587990674
H        -1.62407462109757   -0.90607121812827    5.40482180035873
H        -2.88748278007981   -0.98643611093645    4.17826031735322
H         0.31754119020616   -3.11713999903493    4.27864195519651
H         1.76712121381593   -2.94122629308943    3.26555603164407
H         1.59116333228477   -1.99176419634354    4.73597907610037
H         2.78178029798336   -1.57592188107951    1.80735078257162
H         2.57265559793884   -0.17055551555165    0.76732062231300
H         3.12332877827094    0.04183646846583    2.43374631905173
H         1.71071651101459    1.83189415289717    1.03981899639214
H        -1.03333646982871    3.14206444792006    0.99483041111768
H        -0.32099744333224    2.15010740344805   -0.29469583111909
H         0.01847855543863    4.57647338627964   -0.69715832788376
H         1.55616709032596    3.74292130008973   -0.48415827679039
H         0.07739068618642    5.34061307471936    1.65697254986848
H         1.53507795255601    5.85323465210835    0.80805952027936
H         2.07077588362957    4.91359941916742    3.05457943493733
H         2.79539960396131    3.95799740298691    1.76055555937452
H         0.20839865361657    3.31031051256126    3.24304753173848
H         1.75319462844817    2.48185905902293    3.44840970511942
C         1.03668929398828   -2.09870565724631   -3.98089097731795
O         1.45476142540634   -2.69259808649543   -2.75572811425769
C         0.51053913219835   -3.20365283129025   -1.97984929362622
O        -0.66260727142682   -3.27923312669845   -2.27821312875094
C         1.07629533398370   -3.81007376218926   -0.73727269584628
C         2.26486223566328   -4.51245647860894   -0.81074114552754
C         2.74574967394108   -5.24392884860441    0.28164356065120
O         3.91111447212784   -5.89118725764277    0.09128356395557
C         4.44491357038329   -6.67379540805802    1.14528062603884
C         1.98833182578118   -5.27696689326170    1.45243815532153
C         0.81778607916977   -4.54506143614282    1.54169769230741
C         0.36352128450371   -3.78371691215232    0.47339051047720
N        -0.80115281712389   -2.99731135313155    0.58642026035970
C        -1.91518416179108   -3.46302929329321    0.13009584204476
C        -3.02752015241305   -2.56623976698196    0.06132469931461
C        -4.30043369023890   -2.96829562188580   -0.39111335757231
C        -5.29184112089137   -2.03720752182197   -0.50525698946135
C        -4.99069451713085   -0.67979506961906   -0.25115859229510
C        -5.93921928493975    0.34268065034928   -0.43589178981162
C        -5.58411834763649    1.65458221717114   -0.24962016089829
Cl       -6.74450723607002    2.91588101726264   -0.48858991899465
C        -4.26823351549256    1.99700742011864    0.10842579068041
C        -3.33998855000701    1.01630516661142    0.32171719185876
C        -3.67180336922772   -0.34416029832962    0.17572341534294
N        -2.74065015843957   -1.30188081189833    0.40333996881515
H         1.94073897776341   -1.93173778627584   -4.55965605393452
H         0.34815862123105   -2.76096641135698   -4.50864240422541
H         0.53409559082390   -1.15234951107509   -3.77116035444229
H         2.82620544047676   -4.52813637661191   -1.73021128185708
H         4.65853872922638   -6.06053111056571    2.02415639247332
H         5.37355087560795   -7.08629965974630    0.75684914654676
H         3.76943086955752   -7.49003834180984    1.41372615397559
H         2.29589893372827   -5.87225573557819    2.29644842266672
H         0.22370156520483   -4.59297536175462    2.43916922242522
H        -1.99495050760181   -4.47441723531067   -0.24901236289016
H        -4.46389378949293   -4.00571546085112   -0.63192151921691
H        -6.28797806819775   -2.31104407149893   -0.81565295030734
H        -6.93863806441811    0.08138219289311   -0.74501826272027
H        -4.00292386684471    3.03723630310024    0.20276691396645
H        -2.31682262210936    1.26320602037098    0.55056096543731
Cl       -0.04915221593160   -0.49090527408657   -0.98065115944133
