77
 energy: -122.912556510621 gnorm: 0.000307221871 xtb: 6.4.1 (afa7bdf)
Ir       -0.59105654534292   -1.04062044309613    0.78740629932059
C        -2.29773475058804    0.67171727690805    3.22287882246054
C        -1.03625143523411    0.06578514818360    2.71537663429164
C        -0.60170682720601   -1.27117607275514    3.01367734109301
C        -1.33247352973566   -2.21245545062338    3.91160527613753
C         0.76160323636584   -1.40161597914253    2.56039648175546
C         1.71893839986196   -2.49449480424820    2.89333888855349
C         1.13633357823489   -0.16983633623663    1.94608405423887
C         2.50468317224668    0.18617968034707    1.48665153813235
C         0.02214368095412    0.74039572831059    2.02730061739447
C         0.13618503098586    2.20706204707179    1.78179681819544
H        -2.17471487927894    0.88837274177969    4.28479521114379
H        -3.13687958670292   -0.01122789955161    3.11755573473855
H        -2.52431329932141    1.59956233292826    2.70760397085589
H        -2.40183752853406   -2.18888240196506    3.72007096762668
H        -0.97547449156802   -3.23109663619885    3.79759920508321
H        -1.16991615298948   -1.91023519085941    4.94711905063682
H         1.21967224344261   -3.33239944458031    3.36678699572368
H         2.23853382019337   -2.84996446382522    2.00554596785084
H         2.46799979203876   -2.10330010807738    3.58240163523644
H         2.46809189120969    0.89290141657356    0.66163616126966
H         3.05473948384856   -0.69492437567911    1.16736930005858
H         3.04622997476364    0.65211327505312    2.31139928038179
H        -0.83256354967766    2.69487823603037    1.80430192249904
H         0.60515848646518    2.40799373920883    0.82203096783388
H         0.76288145476686    2.64539842437264    2.55950036328730
C        -2.16764439802623    7.85241148181789    0.23419885392907
O        -2.46118808247645    6.45930842693508    0.28635660507070
C        -1.65850196366186    5.64734461889432   -0.40658423974344
O        -0.71142395499279    6.03824831030612   -1.05318434850142
C        -2.06069560127870    4.22136329182924   -0.30019657969940
C        -1.31902758109696    3.26683731735012   -0.99241482075534
C        -1.67412090470444    1.93205557723550   -0.94649316863277
C        -2.79348979799542    1.53528761266547   -0.21734238347209
C        -3.29362489632128    0.15765674363206   -0.35408371814006
C        -4.61793956146462    0.01101754760863   -0.78049789954590
C        -5.11860093167562   -1.23653896960386   -1.10694090910560
C        -4.26283128216108   -2.32134044972365   -1.03122701858417
C        -2.96950258004004   -2.12198670742349   -0.55820090360650
C        -2.01523878068249   -3.19023758145706   -0.46936875555025
N        -0.87969268623170   -2.93800613766401    0.07906271461227
C         0.11819535496860   -3.93272712269776    0.08065864092667
C         0.26080429614667   -4.75454958156921    1.19214532946559
C         1.24369677556967   -5.72442602647712    1.25532891219057
C         2.14212197571127   -5.87490263221933    0.19886965783051
O         3.15214288204026   -6.76473880895871    0.15487067971929
C         3.33962671988025   -7.64710771636313    1.24803411496584
C         1.99172571653321   -5.05810651739176   -0.92562695982744
C         0.98033081091957   -4.11662620541620   -1.01157916991274
C         0.85831570232632   -3.38718528888534   -2.31079522803132
O         1.80179554567601   -3.11078498532985   -3.01149001339436
O        -0.41700462324390   -3.20174957518698   -2.66214984530788
C        -0.64986403579251   -2.52089130028590   -3.89235727079619
N        -2.49723273755915   -0.90566031185209   -0.18003945581701
C        -3.53388054562409    2.49229382943889    0.48127445664826
C        -3.16342287191249    3.82217637972280    0.45440012437202
H        -2.16440891533842    8.19925358813154   -0.80084433554934
H        -1.18761918901279    8.04841178086381    0.67312628123871
H        -2.95062888299577    8.34471331661969    0.80392135959541
H        -0.47031269615971    3.59283842036464   -1.57372864542078
H        -1.10296206700277    1.20037791948640   -1.49454584495860
H        -5.22972523550875    0.89320342476426   -0.88004540379662
H        -6.13822119528511   -1.35415899253587   -1.43778846612383
H        -4.57618005148010   -3.31076261947844   -1.32104064953651
H        -2.24180252182001   -4.16397338530541   -0.88837929701835
H        -0.43525602663565   -4.64520136820916    2.00843731580694
H         1.30180245334377   -6.35398962975163    2.12781025375974
H         2.46710609191474   -8.28986257199769    1.39047564619179
H         4.19929377004823   -8.25808572645891    0.98120859807883
H         3.55514055310967   -7.09810476293052    2.16796618743990
H         2.66777775594875   -5.18179355970400   -1.75666749479070
H        -0.39990788824099   -1.46493560346517   -3.77441603578464
H        -0.03083073944558   -2.94584929030735   -4.68399097416183
H        -1.70581764379791   -2.64640280172087   -4.11251973294511
H        -4.40044649615248    2.19179036077610    1.05078540097597
H        -3.73139444481839    4.55993643944664    0.99767264042687
Cl        0.56117173730062   -0.64997459748520   -1.25808371050145
