55
 energy: -81.112780406033 gnorm: 0.000537308170 xtb: 6.4.1 (afa7bdf)
Ir       -0.98503447657057   -1.14055974524495    1.25576125995164
C        -2.29482946156194    1.19006620742082    3.41403084825591
C        -1.15943706352223    0.33179310628715    2.96753352253846
C        -0.88177706346582   -0.99762246649832    3.46907704769927
C        -1.66738062655876   -1.69299650168158    4.52919488477806
C         0.42725155173506   -1.37624293344273    3.01324379404862
C         1.19541694212805   -2.56338113811828    3.48146175050084
C         0.89668439297261   -0.35544273276394    2.13637037694688
C         2.26532293806919   -0.23590667359791    1.55613092300919
C        -0.08035903959727    0.72046824780692    2.13699291383828
C         0.14842046400890    2.05465611569851    1.51398828766057
H        -2.00990056965048    1.69504030294757    4.33800669905756
H        -3.18342980374305    0.59834693388423    3.61722802300185
H        -2.53016145012723    1.95368933540325    2.67712117060322
H        -2.73358426890690   -1.52304025526716    4.40637668278918
H        -1.47848101150956   -2.76257038241009    4.52011490540911
H        -1.37357272848017   -1.30479198309651    5.50511003664067
H         0.54090638660036   -3.40613425779473    3.68652269584107
H         1.93863851875811   -2.86932799459534    2.75066383666383
H         1.71269263260080   -2.30307378838830    4.40540175165719
H         2.22264065933859    0.18863156873219    0.55569751173524
H         2.76084188111511   -1.20107036381863    1.51022773594961
H         2.86257022118922    0.43082142163905    2.17895381712548
H        -0.75196550708154    2.66153700171652    1.52770350949742
H         0.47694604425351    1.94480987355363    0.48226156165532
H         0.93105796618476    2.57848053870355    2.06357474492225
C        -7.74272708890228   -1.39792648727918   -0.91516766600293
O        -6.66085316716722   -2.31896824151601   -0.92621661384396
C        -5.49257817246779   -1.96694201962412   -0.40065866949805
C        -5.19553694185903   -0.72533172167476    0.18333085749741
C        -3.93596361843151   -0.50504629286741    0.69996986145181
N        -2.96924302434166   -1.41693283184446    0.68834647034146
C        -3.22935490276198   -2.61566731010659    0.10482269098642
C        -2.09544677579688   -3.49585959787886    0.07780747804116
N        -0.98444178017305   -3.02846645888259    0.54751494018272
C         0.16825368273671   -3.82838570380489    0.54878989122674
C         0.13769855220084   -5.11855147661623    1.07744028003792
C         1.28798311960366   -5.88606595823763    1.07618589345503
C         2.46283104421702   -5.38496782152166    0.53699928166327
C         2.48951808465105   -4.10495867268413    0.00280993052479
C         1.35137953208352   -3.32028924130836    0.01511931535349
C        -4.46644137941224   -2.92053149991177   -0.43696899235222
H        -8.57034534331694   -1.92061754723802   -1.38921225076778
H        -7.50139866711489   -0.50086425628171   -1.48904878142668
H        -8.01758461910964   -1.12865153676806    0.10686339577577
H        -5.92694050081475    0.06320243845336    0.23614402595803
H        -3.69500272193452    0.44831757150415    1.14473825556008
H        -2.16159782548687   -4.48543231739180   -0.35876637192381
H        -0.77595834899419   -5.49857255994281    1.50807542313513
H         1.26582497897180   -6.88031968728087    1.49519911271407
H         3.35585141705104   -5.99026929242805    0.53241182578754
H         3.40064101328755   -3.71703539119813   -0.42601710235355
H         1.34801644080927   -2.33087616720261   -0.41478629746152
H        -4.64763040171809   -3.87733625141654   -0.89725101677004
Cl       -0.66828411399192   -0.40093710411405   -0.99629445906021
