57
 energy: -87.304408320208 gnorm: 0.000818938967 xtb: 6.4.1 (afa7bdf)
Ir       -0.40283463943356   -0.73489681764182    1.81426046879702
C        -0.72046373811886    1.96915401096919    3.70124938989421
C        -0.07540528866162    0.62035045185033    3.59209846614833
C        -0.63031634797359   -0.61495505485183    3.96002215937104
C        -2.01029170236070   -0.88754606873892    4.48871745049079
C         0.52798370037203   -1.54611556769652    4.32691453480645
C         0.40559719051007   -2.35743346352976    5.59292284769575
C         1.75790588808317   -0.67128224143585    4.20172088562739
C         3.10607483487790   -1.20410714667381    4.52678386894344
C         1.40463965226485    0.53444279974476    3.72345249630890
C         2.28529856237542    1.69844327879817    3.42997571543494
H        -0.23013811780318    2.50490741601562    4.51292422343901
H        -1.77409421073894    1.89203246019100    3.94351432227040
H        -0.59603188672243    2.56073387324460    2.79843361699263
H        -2.74115289223822   -0.21041408540134    4.05821091935816
H        -2.31621373174611   -1.90806402757549    4.26812956321078
H        -2.02055355771793   -0.75738802665583    5.57098470746532
H        -0.49214129797024   -2.96877235193002    5.58135011587875
H         1.26930776599459   -3.00598483898088    5.71272731073366
H         0.36066608831975   -1.67883266834438    6.44223520748693
H         3.88410605560855   -0.58307382822373    4.09284096477880
H         3.21547512745500   -2.22090090803095    4.15217688050681
H         3.25334538016388   -1.22603894749759    5.60694749119384
H         2.30324564564058    2.38094489211259    4.27924031541074
H         1.91708909742894    2.24452028651163    2.56594724149809
H         3.30491262198328    1.37621367906632    3.23872472989056
C        -4.71979028370957    5.25180942682982   -2.08401998895609
O        -4.09409660941378    4.23542980720675   -1.30339543619395
C        -3.18454496349564    3.46802807517054   -1.89896142585320
O        -2.84415377121801    3.57780194378092   -3.05588201975452
C        -2.61441253835714    2.45689814334793   -0.96800511948424
C        -3.06952747457295    2.29613792856193    0.34762553113876
C        -2.45415154513561    1.37446838652169    1.16421360155660
N        -1.42764376064511    0.60200842020362    0.77584467201386
C        -1.06063636216913    0.67431942094985   -0.54574187778038
C        -0.17182620316351   -0.36593651206257   -0.94770056832324
N         0.07990422092764   -1.27224890546930   -0.04615386634960
C         0.86062233864708   -2.38781597505266   -0.38737296371821
C         2.08290227856474   -2.23803442753747   -1.03993936155477
C         2.84079971733873   -3.35408457416822   -1.34405522816889
C         2.38203284504293   -4.62113011206103   -1.01936257209428
C         1.15932830088163   -4.77203770660567   -0.38211017347287
C         0.40189824707256   -3.66276559792770   -0.05811368207176
C        -1.61410465065389    1.60848153978554   -1.41721405051629
H        -5.04384567707325    6.01818728576579   -1.38465237777103
H        -4.01360546764201    5.65965880537717   -2.81004653525917
H        -5.57795074886463    4.83296167901865   -2.61232059925130
H        -3.88267465676798    2.89642032803809    0.71849014258363
H        -2.79243669585529    1.24502115608799    2.17914642904515
H         0.17928514468076   -0.45054857032100   -1.96892074250535
H         2.44529053162303   -1.24896287069262   -1.27577201508535
H         3.79330344124215   -3.23364273525598   -1.83714588900181
H         2.97561841792057   -5.48913424083731   -1.26163731838242
H         0.79593212906506   -5.75793448607812   -0.13547546545262
H        -0.55919050489566   -3.77340626101918    0.42121480775041
H        -1.27798627666489    1.66959257853080   -2.44013010379669
Cl        0.60681037930803   -2.64348506330980    2.86200330434478
