67
 energy: -116.434574142096 gnorm: 0.000372836595 xtb: 6.4.1 (afa7bdf)
Ir       -0.66654831672789   -1.02302439002669    1.41978130478733
C        -1.74786377755888    0.88750816992229    4.09228052610893
C        -0.65361465982053    0.15703259886501    3.40159275422429
C        -0.33890817536879   -1.22534927375296    3.62767556124072
C        -1.02346009645068   -2.10182903078677    4.61863565946866
C         0.90351574346752   -1.51497402782910    2.96380483073781
C         1.73824547832154   -2.72451589517980    3.20078248876823
C         1.29009448884213   -0.35260063958535    2.22848914006292
C         2.58824207404148   -0.13727162758092    1.53367599720474
C         0.31715734803096    0.69196303189143    2.50415938270270
C         0.52398705034664    2.11618672687386    2.19532410331740
C         0.58240841300608    3.03114184493396    3.24448780382919
C         0.81482134753370    4.36392079351693    2.96201295432919
F         0.87480724002153    5.24057032815514    3.98515487771742
C         0.98532609319439    4.83423442289229    1.67254489785114
C         0.91993664490909    3.89981076336555    0.65363751227701
F         1.06504621215107    4.32377406763794   -0.61916121200790
C         0.69890012384035    2.55621526883729    0.88583174499727
H        -1.86739561167392    1.88998923705544    3.69465799227193
H        -1.50690829986315    0.95195696261528    5.15406743190907
H        -2.69262458040161    0.35512714437481    4.00773166802099
H        -0.86488726123731   -3.15195883341638    4.39116653245966
H        -0.61445485438606   -1.90501395313755    5.61029839253506
H        -2.09022066855709   -1.89889247836507    4.64977283781350
H         2.36364097461340   -2.53989613632860    4.07531874683904
H         1.12762119749178   -3.60016063718448    3.40007802121417
H         2.38875890139323   -2.93762470651288    2.35832751979288
H         3.13555597972176   -1.06946034059289    1.43442986427930
H         2.43949545265193    0.29628766973245    0.54794650453210
H         3.18983064577328    0.56025207991970    2.11656220418287
H         0.47443957622251    2.71804918781188    4.26962329212272
H         1.16102500408269    5.87777008861013    1.47136420378218
H         0.63487118129733    1.87083621367431    0.05556587076208
C         3.42594626448350   -3.46660987543415   -1.34166372732858
O         3.12784002666509   -4.65265125075752   -0.62510201327976
C         1.96079824476168   -4.73298427001911    0.03378794750598
C         1.01355582357787   -3.71907086126390    0.12567559669528
C        -0.18224288853452   -3.92823562496373    0.81452509351005
N        -1.12467307585641   -2.88800972035680    0.83404197718829
C        -2.35639139508203   -3.14038692779197    0.51750292502445
C        -3.25768181536771   -2.03244794143026    0.45506105526218
C        -4.56767185734709   -2.12804859517887   -0.01441675987766
C        -5.32211370976226   -0.97662183394802   -0.09942646267575
C        -4.73857401689244    0.25209799165094    0.22505840519551
C        -5.57632121596283    1.38897909359384    0.21740548599755
N        -6.32334238947131    2.25896913985295    0.23735450114513
C        -3.38574561306074    0.29292272741249    0.62778289946538
S        -2.47446725925593    1.73889783806442    0.94854435327789
C        -3.18612411847621    3.02230966296153   -0.11809495404784
N        -2.69931810459696   -0.84686642124291    0.80026869728323
C        -0.44173521616670   -5.14029977077786    1.44859733681199
C         0.50814906192458   -6.14674444988633    1.39342854941457
C         1.67816041017419   -5.94436652364679    0.69265635242298
F         2.58656482018710   -6.93696851975976    0.63445220095189
H         3.49914602156661   -2.60774503898441   -0.67078890862122
H         4.39094436108316   -3.64779822616456   -1.80942911815398
H         2.67563465575755   -3.27143961230088   -2.11096674830064
H         1.16133997388006   -2.77111156256126   -0.36711346484313
H        -2.67612528623488   -4.13359787017128    0.22567027026676
H        -4.97307946470388   -3.08551995811151   -0.29497220064596
H        -6.35473582626958   -1.00555485737333   -0.41208732406362
H        -2.38044637096173    3.73790848536787   -0.25866712500239
H        -3.46209576012582    2.59239582432518   -1.07488069195654
H        -4.03218866992856    3.50571024774246    0.35779569511379
H        -1.35596362307419   -5.28543288719592    2.00051476952571
H         0.34823708493695   -7.09360338190903    1.88326619687237
Cl       -0.18104994067991   -0.47462566014235   -0.83444122035528
