82
 energy: -131.991453737699 gnorm: 0.000826885510 xtb: 6.4.1 (afa7bdf)
Ir       -0.28961382610155   -0.84724906518235    1.89797400495415
C        -1.66456298373691    0.90678415264654    4.52650350530888
C        -0.47016806965868    0.32133167964259    3.85946989489161
C         0.01787055724714   -1.00519262336990    4.11178816437319
C         1.29381550351523   -1.13639574053131    3.45748640558273
C         2.32861594818874   -2.18148658998931    3.69425811958807
C         1.55326076993858    0.08153161512028    2.75014162860066
C         0.45885877288185    0.99088394042507    2.99662341170774
C         0.50531457204925    2.42153249018165    2.67243465535908
C         0.36714229817063    3.37079438494287    3.68358838560208
C         0.48391551868587    4.71656641379270    3.39868502893803
C         0.74298948377250    5.15470693961362    2.10142609811891
C         0.87125770186679    6.58873738685466    1.80248788606293
C         1.86554992656976    7.04842470619654    0.94107923372045
C         1.98918313008913    8.39775963275063    0.66487182105395
C         1.11743188855680    9.30892739685316    1.23873525029837
C         0.12188398501460    8.86236941673386    2.09256691851980
C         0.00121485607982    7.51419416652600    2.37564718693186
C         0.88048013955688    4.20127242171000    1.09380469369376
C         0.76433831206546    2.85543915987911    1.37295634025644
C         2.84984580144643    0.41337409870956    2.10154432101563
C        -0.55821842628746   -1.93533750951203    5.12603227535412
H        -1.46145730283442    0.99198745745308    5.59480328680248
H        -2.53601089111745    0.26531331365870    4.41149167261503
H        -1.89298760043553    1.89125414209652    4.13154488891025
H         3.14939725048353   -1.72987512374076    4.25325536872228
H         2.73422081632510   -2.55576888496315    2.75700171694353
H         1.93692958747447   -3.01015103889546    4.27293601670895
H         0.20168933298963    3.05365633411240    4.70143150224478
H         0.39721502502101    5.43926088373797    4.19610559799071
H         2.55835293304619    6.34566846155320    0.50114913983465
H         2.76869533483121    8.74148544126434    0.00013268222863
H         1.21385122356396   10.36250085910581    1.02096068452774
H        -0.56276284218926    9.56926430441696    2.53864947256817
H        -0.78698777412779    7.17068805064239    3.02947144878190
H         1.06169134222326    4.52110288629735    0.07857848714711
H         0.84153682747593    2.13051392699403    0.57663029465706
H         3.03742045354128   -0.23585690494310    1.24783891166294
H         2.85688485601520    1.44510093419339    1.76025069408949
H         3.65783734503178    0.26637189999903    2.81904136659516
H        -1.64319394313464   -1.88180974491093    5.13443834129039
H        -0.25812674554473   -2.96214289314564    4.94162146414841
H        -0.19852498487624   -1.64814060408441    6.11502555912614
C         1.08223020409154   -2.21112600215338   -3.39051443621540
O         1.46372302304108   -2.86781694209576   -2.18515579002084
C         0.48714391843069   -3.23072536946911   -1.36759445825720
O        -0.69439819595709   -3.10259046494123   -1.61527437775188
C         1.00891894863332   -3.91589492376299   -0.14801147830931
C         2.06951083497761   -4.79462758585899   -0.27293449070351
C         2.52028222991926   -5.54788149754945    0.81697767956991
O         3.54652581438298   -6.38375509925554    0.57018684672336
C         4.03802379605108   -7.20000604148531    1.61949994457097
C         1.88077242336500   -5.39871008708198    2.04813746644569
C         0.84981565957151   -4.48785468268542    2.18664068814803
C         0.40842471636705   -3.73201814567182    1.10983781420606
N        -0.62000310192311   -2.78104487092472    1.25508445506442
C        -1.77002271918373   -3.04720481622450    0.73702292468477
C        -2.73301527233339   -1.99598896895575    0.62886355480713
C        -3.96779921514430   -2.17148125496834    0.00796487531705
C        -4.79216335843629   -1.08724856472079   -0.20764664333967
C        -4.34751710037210    0.17676005014608    0.18738085432666
O        -4.99213490885967    1.32682269564529    0.03243031949470
C        -6.27226850925068    1.33842096187312   -0.58452498763258
C        -3.08831128491545    0.25943339343498    0.82371964151761
Br       -2.53786290763959    1.98826520338024    1.31016760016127
N        -2.31154776395224   -0.78002414152414    1.06833464560584
H         0.60190923308927   -1.25998289843956   -3.15227771283955
H         2.00013350920356   -2.04742594675009   -3.94750829246127
H         0.38536445886080   -2.83225821736695   -3.95605930961192
H         2.54929560590741   -4.93088858969722   -1.22806831221630
H         4.85358514204310   -7.77208885115198    1.18229757509232
H         3.26634537624203   -7.88449634078220    1.98089110712148
H         4.41979246485663   -6.59561327842723    2.44593280570182
H         2.17705785080095   -5.98560862679442    2.90164739525528
H         0.34883143530973   -4.38349356247243    3.13491165216253
H        -2.00016825300633   -4.02803032754162    0.33847421316455
H        -4.25791193756146   -3.15622430268628   -0.31904405543711
H        -5.74718227218298   -1.21326880875690   -0.69033974775217
H        -6.21536102478637    0.97021036477528   -1.61115243469482
H        -6.57767356188880    2.38224013093975   -0.58630837659245
H        -6.98761472696790    0.74629307181118   -0.01008687374529
Cl        0.38438636550711   -0.41282283664191   -0.33546210904757
