72
 energy: -110.953866452957 gnorm: 0.000460597176 xtb: 6.4.1 (afa7bdf)
Ir       -0.68402361449716   -0.98149327439589    1.44473736460872
C        -1.94113317854653    1.44939544522775    3.69884308345379
C        -0.87191870147763    0.54526145959980    3.19531118484884
C        -0.74628791124177   -0.82489989683370    3.66981042503126
C        -1.67586625007366   -1.46316390130009    4.64441285332360
C         0.54392751628939   -1.30562502594062    3.30779758362425
C         1.20407957406243   -2.52711214475623    3.84167698804327
C         1.14310813890416   -0.31786797471459    2.45116792769963
C         2.55572513798844   -0.33871877264589    1.97535436556346
C         0.28462595508442    0.86379672456750    2.44700362721909
C         0.75950350463193    2.20482239841465    1.96090657892574
C        -0.16873179974944    2.91659995340417    0.97271294857700
C         0.47670260969157    4.21712235797641    0.50296904611794
C         0.77076448438249    5.12905553104602    1.69145516569235
C         1.67685605922573    4.42144607924336    2.69524322153988
C         1.03942303323800    3.11790824111720    3.16766242273349
H        -2.91345573046514    0.96366478475664    3.68346736938238
H        -2.00354847773400    2.37007047521539    3.13154472675722
H        -1.71284805174061    1.69175185721265    4.73803270346330
H        -1.56198501720944   -2.54335054198279    4.64894797754205
H        -1.45140404327348   -1.09366213233806    5.64556445717128
H        -2.71087068066615   -1.21746194203465    4.42200247733492
H         0.48319939529388   -3.31083908432766    4.05576900541288
H         1.95238483848390   -2.91352958770015    3.15625551752269
H         1.70209739643496   -2.26222851273301    4.77514985679082
H         2.93801761851009   -1.35444523221643    1.93541424101802
H         2.63780071175555    0.11185675361043    0.98906937452451
H         3.17521062797459    0.23557634428054    2.66488585149053
H         1.70864635841993    2.04817762510992    1.44031924878876
H        -1.12715707623122    3.14911447974573    1.43525112863674
H        -0.35371788832880    2.26381197183700    0.11935772615741
H        -0.18993271542419    4.72326142480371   -0.19766997928493
H         1.40726489411207    3.99689573770275   -0.02550094456240
H        -0.16771175525541    5.40485063073824    2.17807546306847
H         1.24724414313117    6.04838421105637    1.34527715486772
H         1.85909002993807    5.07046932062364    3.55420103292972
H         2.64111585505828    4.21185205549979    2.22655272944194
H         0.10762948059671    3.34277502393332    3.68528540385362
H         1.70469221439166    2.61172948408746    3.86973425704484
C         4.17739085640744   -7.12658830588234    1.34680352899232
O         4.04298795767031   -5.85091552754261    0.74710548173866
C         2.87065870905751   -5.20452017145034    0.83351930207729
C         1.73991286607292   -5.67083838336280    1.49595155899362
C         0.56989311291773   -4.93436016167610    1.51136229591814
C         0.52602237355912   -3.68381720189225    0.89826485344010
N        -0.63702407758370   -2.91999922854291    0.88829343140261
C        -1.77363804833825   -3.49971278184706    0.63655954957453
C        -2.93194164213954   -2.67876867370666    0.52274411399390
N        -2.74345157450690   -1.35860059468967    0.76556754900630
C        -3.73971688948091   -0.52396952448762    0.49000496162018
Br       -3.42041558378377    1.31511227983581    0.67244091475568
C        -4.99441641993976   -0.93467058346210    0.05843577162633
C        -5.22941014703448   -2.28870717856717   -0.13410596021868
C        -4.17642295445633   -3.15400066589228    0.08331921499876
F        -4.32055386236710   -4.46657225182544   -0.13165824054978
C         1.66532323531262   -3.18306836358403    0.25170659440712
C         2.81966040836959   -3.93683321215044    0.18243582541369
O         3.94638018003236   -3.57840276795676   -0.46632107508183
C         3.95072593510826   -2.37483291579853   -1.21039785824892
H         5.19478185577976   -7.44285063722857    1.12689116648613
H         3.47284982706455   -7.84355001630249    0.91770460625475
H         4.03896455659761   -7.07042899445886    2.42957982170449
H         1.76193351738280   -6.62156957243221    2.00174738490486
H        -0.29106538658036   -5.31257395655684    2.03887599969223
H        -1.83868712906323   -4.55790153702462    0.41324224836089
H        -5.76611130119592   -0.20408940162177   -0.12216620429308
H        -6.18739545325424   -2.65831627737829   -0.46309872313838
H         1.58730496213597   -2.22739598502452   -0.24007927279449
H         4.92465246849808   -2.33786415677552   -1.69368238697963
H         3.16467559076924   -2.37423698063940   -1.96989688272511
H         3.83294747623638   -1.50580082880534   -0.55923215806123
Cl       -0.30629210487404   -0.35872278816407   -0.81543997961286
