61
 energy: -101.720405252979 gnorm: 0.000837447919 xtb: 6.4.1 (afa7bdf)
Ir       -0.60458437345985   -1.32895607070902    1.75562118323296
C        -2.42498424251124    0.30806928471404    4.25477801469749
C        -1.14428776915934   -0.24428547881256    3.74709411429582
C        -0.70279055426545   -1.58830938398579    3.99401722240590
C        -1.44188225753132   -2.58579044283783    4.81850001630375
C         0.66626785957629   -1.69049362693435    3.56929927531255
C         1.62952858501603   -2.75110262413514    3.97061395685301
C         1.03239437156430   -0.44433882839453    2.95647251743260
C         2.41450223001807   -0.06251755825065    2.56698357964453
C        -0.09982019905950    0.45290326042967    3.06577633361301
C        -0.02261528103336    1.90300261740215    2.82415902261172
C        -0.27181993052663    2.78238348902145    3.87543644520688
C        -0.15274714996695    4.14193351014850    3.65561931288383
F        -0.39284753366446    4.98467189279802    4.68087436497395
C         0.20285498164352    4.67179876450485    2.42857876812796
C         0.44448513840957    3.77128814376046    1.40569127222379
F         0.78984330365054    4.24931716655624    0.19249366422443
C         0.34438331873628    2.40469600357530    1.57781235598666
H        -2.57073527795486    1.33453849540172    3.93643745453518
H        -2.40764488694791    0.27206684258175    5.34481826449579
H        -3.27346027621765   -0.28925987114178    3.92733194582264
H        -1.14750753265875   -3.60154935975166    4.57130523924201
H        -1.21671057837388   -2.41351922730977    5.87162320651137
H        -2.51471936472179   -2.48568652044289    4.68322734742252
H         2.17459723223644   -2.39220880935789    4.84508855247425
H         1.12638048603449   -3.67190362481492    4.24952716865642
H         2.35986589397943   -2.95429387907507    3.19267130748451
H         2.92332137627297   -0.88190047131656    2.06655203339150
H         2.41640782779018    0.80565241888926    1.91562966154139
H         2.97544912021555    0.18271218929775    3.47007641821744
H        -0.53152897167534    2.42638601878450    4.85865039911203
H         0.28719067093699    5.73469544298380    2.27595908561778
H         0.51801983989995    1.74541914263509    0.74165152177990
C         3.15787095973226   -6.12888339567634    2.34853573915394
C         3.24405676646290   -5.07962883616463    1.55121351797275
C         2.56574194423280   -4.96400420306045    0.22227304543802
C         1.51068016402897   -3.85298026589092    0.19249799723206
C         0.32497858141391   -4.20040831753676    1.10800126209025
N        -0.70608598467155   -3.20206128677725    0.98266399613552
C        -1.71873921461562   -3.48114260517371    0.23542162324079
C        -2.68199242422736   -2.45609529364574   -0.02775538875215
N        -2.46538755952789   -1.27481021135930    0.59835863552164
C        -3.25173853024418   -0.25007425808029    0.27914108303489
Br       -2.89837668058424    1.42981660353275    1.04837373487448
C        -4.31994401549137   -0.34563625839174   -0.60576317258813
C        -4.58248367156393   -1.55716260572695   -1.22460294051163
C        -3.73859805901172   -2.61229113810738   -0.93301243961430
F        -3.90824952381870   -3.79794133507109   -1.52179652589757
H         2.57684871148204   -6.99714753614444    2.08159788161860
H         3.67287702367279   -6.17359573077091    3.29285494386320
H         3.85055181056661   -4.22863518861764    1.83552023715790
H         3.31817071941486   -4.73106671543973   -0.53534177629753
H         2.10408678137266   -5.91660539767525   -0.04275553215204
H         1.14386249422499   -3.73038555614664   -0.82715039223909
H         1.94792558288141   -2.90355285654358    0.50237072532793
H        -0.06850498388235   -5.17980387676626    0.82001543188788
H         0.67099441757747   -4.24913645874249    2.13943097538003
H        -1.83833903878841   -4.45190459785169   -0.23518588864979
H        -4.92922364924523    0.52188007333674   -0.80265451016519
H        -5.39852131147160   -1.67809421533288   -1.91938584812528
Cl        0.25763463382142   -0.60325744242583   -0.33833944127135
