58
 energy: -91.116291493621 gnorm: 0.000697698550 xtb: 6.4.1 (afa7bdf)
Ir       -0.80770247535141   -0.91535555344287    1.33401980146261
C        -2.23174794967439    1.28099952651725    3.55808310304874
C        -1.06948705096806    0.45750876723371    3.11747582098279
C        -0.80821840953263   -0.89620500845593    3.55506106866356
C        -1.63517725902076   -1.65335840287410    4.53776647064522
C         0.52315645026455   -1.24622290436923    3.13782392241872
C         1.27360628525429   -2.45357396614486    3.58164066570454
C         1.02704691887688   -0.17676006521422    2.34361474349108
C         2.41640678409561   -0.01809559095275    1.82638335886829
C         0.04243665192827    0.89376052261824    2.35459467283030
C         0.29769809361601    2.25870483890630    1.81481183100447
H        -2.02253774205435    1.67423119079389    4.55357647491068
H        -3.14069434836070    0.68791082460251    3.61895511814389
H        -2.39447143963828    2.12532959857990    2.89378654824912
H        -2.69367610415496   -1.44859933400165    4.40404743962022
H        -1.46895475813407   -2.72311699979253    4.44922049310229
H        -1.35667500484238   -1.35029554466414    5.54780838818163
H         0.61313007615350   -3.30548215092787    3.71875489841756
H         2.05008520596703   -2.72359399607163    2.87163597263622
H         1.74793256732912   -2.23589348906524    4.53921550545672
H         2.40689846346500    0.41174293882564    0.82738586194815
H         2.94023625259729   -0.96842241716731    1.79955583577055
H         2.96588494068940    0.66225443498626    2.47739861320753
H        -0.58448868670945    2.88780857103182    1.88065360186165
H         0.61178632714265    2.20600862408806    0.77387404932638
H         1.10233228303651    2.72395257347096    2.38381830748897
Br        4.09839373066813   -6.37231767250129    0.58677217798355
C         2.54321802510035   -5.24403037129644    0.57583466850909
C         2.65211210821902   -3.93454543130157    0.12788832913917
C         1.53636347434500   -3.12110223649434    0.13275367315110
C         0.30757399472765   -3.61958934411682    0.56550731410822
N        -0.81484161161895   -2.78136079000718    0.54729077373171
C        -1.91428932181203   -3.17950186225223   -0.01670781804256
C        -3.00376564437875   -2.25946780889794   -0.02611793190144
C        -4.22571353942179   -2.47461760462041   -0.67418026792204
C        -5.17380058410384   -1.48054907367666   -0.67309178943451
C        -4.89319925233137   -0.26264542535278   -0.02752744951402
C        -5.85400825793504    0.80685340026367   -0.01370864049645
C        -5.81604980633352    2.07669608202405    0.52793563774998
C        -7.05122957699240    2.67555959194780    0.22184748917214
C        -7.75753103989118    1.73981484709271   -0.48177001959394
O        -7.04927358732971    0.61872707848830   -0.62681058957360
C        -3.65037950968177   -0.12920923436190    0.60320133561426
N        -2.74291168266319   -1.09055175807477    0.61632673811714
C         0.21040737194901   -4.93922447002540    1.00705485845018
C         1.33028082843075   -5.74895052895598    1.02069341940516
H         3.59916018644064   -3.55865327839277   -0.22436044385187
H         1.59268197548207   -2.10651399141270   -0.22987419268657
H        -1.98532670455977   -4.14318131534885   -0.50715594578878
H        -4.39993491057266   -3.41229754920826   -1.17652002242133
H        -6.12328036374612   -1.61370570403870   -1.16635235719518
H        -5.01099645430089    2.52764330152270    1.06890893456219
H        -7.37448534070024    3.66168343801461    0.48287195690136
H        -8.73923331394796    1.76415845222423   -0.91229669118851
H        -3.39299377820896    0.78978950375481    1.10534165001732
H        -0.73401780357364   -5.32168204942996    1.36231745664621
H         1.26268975234801   -6.76585439435057    1.37172039048973
Cl       -0.29809243558614   -0.10365178972121   -0.85722421157699
