89
 energy: -133.284348978875 gnorm: 0.000460837207 xtb: 6.4.1 (afa7bdf)
Ir       -0.71501157041917   -0.40059156942108    1.46047138911337
C        -2.13266751453084    1.48379986285631    3.97121599296272
C        -0.97314661130481    0.70393369703780    3.45667262217294
C        -0.79415698025288   -0.70987161221407    3.66702529935917
C         0.52753170001165   -1.05081107361924    3.23797519813367
C         1.25167489488451   -2.31430649895642    3.53867606417001
C         1.11003122003994    0.10410260396609    2.63054515786984
C         0.18768637058441    1.21204857314376    2.80455593820234
C         0.53638066019907    2.62773520561098    2.61119467309183
C         0.47188819024365    3.49952998535831    3.69737982352212
C         0.83989482966356    4.82233952619243    3.55522092806517
C         1.28304659894750    5.31420259208141    2.32845001058788
C         1.68302446498110    6.72196662708318    2.18546337563721
C         2.80676942769924    7.06677846839043    1.43691616600722
C         3.19155477197694    8.38917674922399    1.31343515958903
C         2.45715053739230    9.38963778210615    1.92947666897281
C         1.33568819646323    9.05856836808299    2.67249034164000
C         0.95322290012415    7.73613604720638    2.80263341216235
C         1.34401044003686    4.43798181908909    1.24547905470651
C         0.97838073174156    3.11362897754415    1.38215611359576
C         2.53189596488179    0.21624243128610    2.20452585412994
C        -1.70697330275468   -1.57055285634507    4.47399028319310
H        -2.15081333383269    1.41297116271894    5.05911953504218
H        -3.07410026682193    1.08171159633513    3.60133713666003
H        -2.05082992404069    2.52852842062333    3.68883767207576
H         1.78830614564019   -2.17989995481281    4.47913693718331
H         1.98022423334652   -2.54973303209054    2.76743225991489
H         0.57053449348354   -3.15206988810726    3.65518386709647
H         0.16311886503142    3.13145594205109    4.66375346614639
H         0.80862752783093    5.47882629691466    4.41175614384069
H         3.39554048819653    6.29208147102983    0.96751696536722
H         4.06944757872476    8.64181909864554    0.73628434239627
H         2.75801560887222   10.42243599780990    1.83125805449238
H         0.75809688440495    9.83537878544143    3.15248689238864
H         0.07028541061880    7.48920943014282    3.37364814237953
H         1.66464188626063    4.80470201279981    0.28203309520425
H         1.00592162170281    2.45512375893813    0.52702212422923
H         2.82529802556628   -0.63554824683005    1.59609434665731
H         2.69785941376050    1.12835611739285    1.63974820091776
H         3.16784246526137    0.23648828868757    3.09035437743538
H        -2.74559193746246   -1.29494335598676    4.31316493354798
H        -1.57726505143964   -2.62081187407214    4.22777624729691
H        -1.48265787576612   -1.44131550554797    5.53357078245119
C         4.70265419581314   -5.78375071709758    1.63142169878112
S         3.60718433071956   -6.15438755152968    0.23698966029079
O         4.30555183169321   -5.86819568015755   -0.99368474689338
O         3.07667923450269   -7.48751451075780    0.40223238182217
C         2.25301574617256   -4.98027605256075    0.41288703192471
C         1.10673327222559   -5.36701193101537    1.08246831317544
C         0.05583693155710   -4.47669389397213    1.20544013391790
C         0.16430690484494   -3.19517346585117    0.65779468145119
N        -0.89609998282210   -2.28261816276359    0.74848444541410
C        -2.10757569220786   -2.67926066998723    0.54815089866655
C        -3.17192395752574   -1.71962308165161    0.54438080659871
C        -4.47515401426468   -2.14040653736473    0.34950857748606
C        -5.47612437162761   -1.16939135797487    0.30731658534490
C        -5.09757309465308    0.14141465579099    0.27974107830803
C        -3.72021645811045    0.52672571353545    0.32628856427948
N        -3.42231778956055    1.79820486420564    0.03576489912650
C        -4.25267707528606    2.60231777943917   -0.84976501532516
C        -4.71370013601719    3.88272764399791   -0.15883859363729
C        -3.48501079863816    4.68047710412321    0.26954647831732
C        -2.59664890134140    3.79741140889964    1.14011796632284
C        -2.22071386345244    2.50798188879835    0.40533654124940
N        -2.79234970717130   -0.41076740832876    0.64636480253312
C         1.33725903122350   -2.80968573946270    0.00624170622149
C         2.37849830114149   -3.71088318497296   -0.12263908398341
H         4.15237318864313   -5.95784124418152    2.54663509528244
H         5.55097164435545   -6.45402974553419    1.56344310582783
H         5.02472942777522   -4.75485451804377    1.54118867010003
H         1.04847265964436   -6.36747752564804    1.48015240673866
H        -0.83769967465325   -4.76619348046858    1.73677880461470
H        -2.32970959708571   -3.70847089162299    0.28667045989542
H        -4.70107853474551   -3.18953488321842    0.26846679159684
H        -6.51759577885514   -1.44720060344881    0.28389951110328
H        -5.84556843624742    0.91542847650472    0.26537083426944
H        -5.09161031937010    2.02619547738834   -1.23303866459834
H        -3.62420982859258    2.87432516980553   -1.70625647257034
H        -5.31908329715250    3.63807227144038    0.71574785860000
H        -5.32810459382483    4.46417603871931   -0.84636697532894
H        -2.93189175210283    5.00472533596659   -0.61403001205061
H        -3.78431133964502    5.57185196718566    0.82169022867883
H        -3.14079497094672    3.54735212008819    2.05176993121208
H        -1.68322126395988    4.32466132798558    1.41496935032816
H        -1.64246472531302    2.74537230787784   -0.49234662431672
H        -1.60882447427651    1.87154767394497    1.04038488118906
H         1.40164581807177   -1.81946195974288   -0.41858015736410
H         3.28071526665482   -3.45224988219418   -0.65327756672925
Cl       -0.02881653554901    0.26020422606459   -0.72801531751814
