78
 energy: -133.866303208664 gnorm: 0.000323070806 xtb: 6.4.1 (afa7bdf)
Ir       -0.15967781075640   -0.75451939645387    2.09964075273540
C        -1.14542924400420    0.93624622569056    4.89324755390154
C        -0.04720694117675    0.37533604689790    4.05856415517013
C         0.55835442947733   -0.90765145253083    4.24880657289046
C         1.68946942937943   -1.00341882778888    3.35268071884130
C         2.73620739533560   -2.06544783030656    3.36249070259026
C         1.78847458057154    0.22160361849730    2.63189143329234
C         0.67665609630905    1.06334888641255    3.02427292973754
C         0.52394686526933    2.48140623402948    2.66393701340162
C         0.59904340691997    3.45422233524329    3.65997546776639
C         0.52134914415239    4.79312744982660    3.33329737392888
C         0.36124314777433    5.20062343303838    2.00947141092195
C         0.31725304311476    6.62954101118313    1.66429566109980
C         0.98250626364247    7.10076137173803    0.53378900768585
C         0.96356432696016    8.44601848291088    0.21473671815987
C         0.27349791460485    9.34222814859604    1.01480557048800
C        -0.39521698035329    8.88426906479519    2.13846435749877
C        -0.37075534274181    7.54039779848644    2.46375625230162
C         0.26791023560313    4.22180125212970    1.02081585228548
C         0.35062572402323    2.88155145510042    1.34097988398870
C         2.92640869955546    0.62925422371964    1.77074880607943
C         0.24118126444059   -1.82185375065797    5.37936664741221
H        -0.76455571263010    1.11636986757740    5.89904579338158
H        -1.97706222630550    0.24068311570726    4.97905308178539
H        -1.50264732284675    1.87850326753773    4.48795218572257
H         3.59876999521044   -1.70785267111956    3.92560769406659
H         3.06931811515070   -2.29177233380850    2.35214767437393
H         2.37665036118203   -2.97620313440446    3.82982363557111
H         0.75571862700867    3.16123865461054    4.68646765393811
H         0.61426674664441    5.53622282449062    4.11061303061814
H         1.53830328063968    6.41251731389797   -0.08627329384917
H         1.49057813637259    8.79800213840890   -0.66040972387617
H         0.25763580455271   10.39269430778790    0.76354767071021
H        -0.93737965934247    9.57903626729306    2.76344585478971
H        -0.90589669771146    7.19323562668368    3.33547658670973
H         0.11898106190916    4.51454017679645   -0.00759193795337
H         0.26793120535277    2.13501866485817    0.56591272935922
H         3.13843087173691   -0.12224333203844    1.01306539155363
H         2.72007431381627    1.57634236251469    1.27984500182093
H         3.81639036044812    0.73765690774832    2.39197470027241
H        -0.82562928614223   -1.84346630790925    5.58363979697434
H         0.60115538118843   -2.83003050490305    5.20263144550545
H         0.73872038001599   -1.44050753642653    6.27256541433096
C        -7.74595823139517    1.39297027317521   -0.76779167924085
O        -6.47117662870656    1.15182184675376   -0.17151188977299
C        -5.89925034906712   -0.01699913832270   -0.42200122212488
O        -6.37490455882423   -0.88532262723548   -1.11425802472662
C        -4.57351032083306   -0.15136575020614    0.26226025381891
C        -4.01082604189300    0.88075969983167    1.01889151928324
C        -2.78136072668865    0.68003350258943    1.61589716910666
N        -2.10554657492082   -0.46414992434556    1.51112370801542
C        -2.63758590397550   -1.47057070778550    0.76848375089274
C        -1.80292706218843   -2.63013255993681    0.67320802001608
N        -0.71208536430108   -2.63293415883485    1.37489934303128
C         0.22574490405869   -3.66811064232755    1.19589282664804
C         0.80544548815548   -3.86638391333518   -0.05280364746121
C         1.79180745536091   -4.82649066224542   -0.21147512615173
C         2.40171189099283   -5.02875151742739   -1.56694257766934
F         2.52852769442872   -3.88374194848487   -2.26130770247375
F         1.65715448247821   -5.84726281312045   -2.34531485288127
F         3.62534299606722   -5.57887170913645   -1.51756898870181
C         2.18725263721883   -5.61907301967172    0.86361672109535
C         1.59191819068551   -5.44452090144502    2.09454253056291
C         0.60312489447803   -4.47844845363408    2.28139409277722
O         0.03352085661021   -4.37300511437550    3.48614850700559
C        -3.87164688804251   -1.34012922922172    0.13364511800376
H        -8.46675260728190    0.64652421987660   -0.43002865417909
H        -8.04085667832629    2.38785783314993   -0.44704544454008
H        -7.66886671700259    1.34265534003349   -1.85497076884926
H        -4.52696010175611    1.81948144810881    1.13276929100970
H        -2.31857480051141    1.46601816107536    2.19407361551138
H        -2.06638575185945   -3.45621948326331    0.02258819588255
H         0.51776645396589   -3.23088810420241   -0.87591732537265
H         2.95410166702489   -6.36522050251255    0.72980249905733
H         1.87268383353858   -6.05689673188194    2.93562032531470
H        -0.71846085411756   -3.76140463372155    3.48017183106166
H        -4.27959846847639   -2.14532753268219   -0.45762989131355
Cl        0.33669380092121   -0.41431700096169   -0.20843275021114
