83
 energy: -118.215578579371 gnorm: 0.000367359414 xtb: 6.4.1 (afa7bdf)
Ir       -1.07982868823315   -0.07179286021144    0.88563689416559
C        -1.98059330480371    2.41938773482573    3.28787855644557
C        -0.73176776442249    1.61193045217335    3.09129168033886
C        -0.74734997743360    0.12727713685315    3.02380811540859
C        -1.73627873823218   -0.57854104116229    3.91761509622562
C         0.68855926804252   -0.27036363935482    3.19328723839374
C         1.16859058430951   -1.67980793012487    3.27302395560574
C         1.43542494137439    0.84856282039971    3.30011698335773
C         2.91198012229132    0.92592298271333    3.47142351833592
C         0.56133075260640    2.02865563372261    3.23198221820517
C         1.10777040313770    3.41818492262472    3.32734065914159
C         0.83987609168236    4.22230315080173    2.04703785252040
C         1.53163264774985    5.57984689317404    2.12592698477750
C         1.04894531055555    6.35754844089420    3.34811097454574
C         1.28599636457472    5.55398857781219    4.62473717472180
C         0.58957995880725    4.19803240608854    4.54362715375360
H        -2.85130083103982    1.91364831071543    2.88382017519391
H        -1.89955893653028    3.40056038516590    2.83075550993942
H        -2.14663635876859    2.56051356285826    4.35629864711024
H        -1.73746947599872   -1.65272277220403    3.76062044876805
H        -1.42082419857728   -0.39607598302221    4.94572854697639
H        -2.74340666608289   -0.19150962761953    3.80488646942358
H         0.35168372987025   -2.35975033727917    3.48572553237381
H         1.63119570208289   -1.98047491302703    2.33351717723315
H         1.91394066882641   -1.77646522202776    4.05940861871366
H         3.34737743182641   -0.06850285286928    3.49251429850712
H         3.35812483506580    1.47223593437870    2.64017853094656
H         3.17081746814703    1.44266852774560    4.39566213222678
H         2.19338820646475    3.34242889053618    3.43574208704860
H        -0.23132736887969    4.37726566837942    1.92086759319390
H         1.20663457154030    3.66185994980571    1.18385218662934
H         1.32937518658233    6.15252458353243    1.21763581012167
H         2.61303217618938    5.43663313607649    2.19150011551453
H        -0.01807495102333    6.56947486740157    3.24634719926752
H         1.57281082371450    7.31400763347809    3.40866860697184
H         0.91150570530426    6.11049249932744    5.48684037556215
H         2.36001484149151    5.40854948477584    4.76610687692254
H        -0.48478089019707    4.35475832322050    4.46217161771378
H         0.78177899591145    3.62498952357292    5.45265452987084
C         1.57016369630361   -7.26215904585893    1.67915657181908
O         0.65215920872882   -6.21170471208962    1.92644545127489
C         0.64055010927720   -5.14319382353289    1.10920652772635
C         1.48114367293282   -4.97054955414780    0.00958962801003
C         1.36803377419880   -3.81777700897561   -0.75273884288323
Cl        2.41424719683811   -3.61202867843438   -2.12203440999804
C         0.44711085337167   -2.83151245453259   -0.45575942849160
C        -0.39366949440074   -3.00584285712408    0.64410982504640
N        -1.35958148437307   -2.02229429018034    0.93062523466039
C        -2.55688489957321   -2.39260154794170    1.29507392921607
C        -3.55070994453262   -1.37838785905878    1.44543929205833
C        -4.85573694188419   -1.62424359355189    1.83668248947222
C        -5.72399557145561   -0.53781601226263    1.91122696633204
C        -5.30890281888140    0.68855135424060    1.45614041027380
C        -4.00115579894026    0.86495686123396    0.92800504287769
N        -3.66053244451555    2.00085771297145    0.29369647533269
C        -4.67557570582413    2.94747935380119   -0.16393272013354
C        -4.32454071877552    3.47241827960843   -1.55433175128839
C        -3.02224008615788    4.27821231707255   -1.53304547764676
C        -2.11466964894784    3.75939167415137   -0.41417606622593
C        -2.32009633259862    2.26299361189083   -0.20531192350832
N        -3.10274442471361   -0.13700708067691    1.08597189976763
C        -0.29915995114883   -4.15630054138083    1.41759444429310
H         1.38138214554181   -7.99931459850909    2.45654546779904
H         2.60250665398709   -6.91140609995484    1.75188013994601
H         1.40006360611924   -7.71398684007052    0.69871796397417
H         2.21842128310275   -5.70762988797507   -0.25906349358713
H         0.38104350835797   -1.94264156124046   -1.05938398161876
H        -2.81807705531304   -3.43925521736627    1.38534449824027
H        -5.16517186577950   -2.61867199811371    2.10567016288327
H        -6.71883536049898   -0.65905713643846    2.30845886254777
H        -5.97063979931618    1.53327757448856    1.52893013853040
H        -4.75848250960618    3.77842636610356    0.54305744611625
H        -5.63673989846197    2.44007198537588   -0.23016020209510
H        -4.23456633034653    2.62485996656741   -2.23579282499781
H        -5.14734933762254    4.09031782853520   -1.91253167051545
H        -2.52195033673614    4.19153001151389   -2.49814342489669
H        -3.22873070115808    5.33556037781139   -1.36703370170232
H        -2.33818857981303    4.27795129364316    0.51878257064560
H        -1.06778222187636    3.94475393281587   -0.65365882350489
H        -1.56155103884372    1.92256179232058    0.53473748924168
H        -2.15215290723065    1.73720362469286   -1.15636991635835
H        -0.91694611208998   -4.30698127273527    2.28742605250109
Cl        1.02423797469796    0.37508449918471    0.07928853678293
