67
 energy: -123.550801150192 gnorm: 0.000598003810 xtb: 6.4.1 (afa7bdf)
Ir       -0.72477193127216   -1.05180943769864    1.32213792715129
C        -2.13980876764458    0.83732742696554    3.83073050206930
C        -0.94359907926966    0.15926344302303    3.26287104792312
C        -0.56646460123146   -1.19857058993640    3.54439890198853
C        -1.27838868439757   -2.10055542025945    4.49267105684653
C         0.74923391679627   -1.41605480159479    3.00019274796004
C         1.63688373480757   -2.56796322289604    3.31398248795385
C         1.12732231395583   -0.25051328572058    2.27622673300389
C         2.47715478997436    0.01532569717102    1.70945196526850
C         0.06865113512639    0.73729652901266    2.44089839968075
C         0.21947104877828    2.16693109591463    2.11733190015835
C         0.17035911938532    3.09962572613560    3.15226683157620
C         0.37687667754132    4.43478894677854    2.86170509966170
F         0.33625011133753    5.32939755108816    3.86965229331578
C         0.62472530249052    4.88932186433687    1.57865913581200
C         0.65923838323254    3.93923641460534    0.57271636109308
F         0.89147256147516    4.34669419050216   -0.69071568118143
C         0.46406398427827    2.59224678646292    0.81345800184855
H        -2.28795343188452    1.81830293676790    3.39005106063792
H        -1.99803136425842    0.95183182821416    4.90578951676057
H        -3.03811775225131    0.24225486218417    3.68322650269559
H        -1.04452192421479   -3.14236774234947    4.29461030078321
H        -0.96014252824672   -1.87099517900735    5.51022712287112
H        -2.35370840782025   -1.95719307875643    4.43556260725744
H         2.17101252457078   -2.34497407613638    4.23856878239754
H         1.07229412463916   -3.48354288544361    3.46474866897205
H         2.37332480256444   -2.72716234338328    2.53176733549476
H         2.86857492789326   -0.86072758541813    1.19892066852606
H         2.45301139406629    0.84808043533425    1.01351336631137
H         3.15854535782706    0.26350541674933    2.52403798465081
H         0.00369178259897    2.79689501271082    4.17284609046671
H         0.78460557231258    5.93439284949766    1.37235453228856
H         0.48215495714605    1.89162192115855   -0.00761044111885
F         3.29626674639428   -7.65191551722548    1.36898152839066
C         3.43379598848181   -6.59357309468539    0.55716187070380
F         4.59795988327289   -6.00647559350500    0.89114214124000
F         3.61234794953537   -7.09039531477830   -0.68474734436432
C         2.27383257715068   -5.63904954627683    0.62123219197287
C         2.41185414587083   -4.38279597711203    0.03753964293056
C         1.35736523662552   -3.49165130623158    0.07223891234439
C         0.15359676294047   -3.86361237759274    0.67115878899467
N        -0.91459918119934   -2.95366121402148    0.68227113218434
C        -2.09333424662707   -3.33579489120491    0.30179473403874
C        -3.12003517333654   -2.34215084111373    0.27236648307412
C        -4.43884914814618   -2.61578632214080   -0.14108570812365
C        -5.34275720290115   -1.59390267116494   -0.20254580691325
C        -4.91656567619429   -0.27627897700982    0.07932116865509
C        -5.78180333508599    0.82601808046832   -0.04220558890220
C        -5.31636104472905    2.09692154805422    0.18400034652790
Cl       -6.36962341220439    3.45768555175090    0.02086627748492
C        -3.96891025924546    2.31380439246679    0.52855205717570
C        -3.11668359190574    1.25565789799392    0.67774587568337
C        -3.56066066771047   -0.06717017357563    0.47637956900115
N        -2.71225284265839   -1.11145420866560    0.62806643724727
C         0.02007028749607   -5.12554781552204    1.25083303605307
C         1.08156446624723   -6.01141059524063    1.22973501899922
H         3.34218740043808   -4.10934277292315   -0.43567071490462
H         1.43929519906195   -2.51918900184938   -0.38915509916967
H        -2.27960365702574   -4.34380215427993   -0.05040548593082
H        -4.70975826646706   -3.62785394054367   -0.39336521325258
H        -6.36827164089073   -1.76931435686525   -0.48763261377989
H        -6.80694796113012    0.65935886856843   -0.33154447103780
H        -3.61786443596033    3.32341192487737    0.66622563853922
H        -2.07597310961225    1.42614030552786    0.90238599354060
H        -0.90315808980266   -5.40558357907060    1.73376860077236
H         0.98566634713001   -6.98555187499942    1.68350072314634
Cl       -0.17166609812163   -0.43496373813851   -0.90922993344708
