61
 energy: -87.412827148820 gnorm: 0.000592507366 xtb: 6.4.1 (afa7bdf)
Ir       -0.64630909535679   -1.07871182468226    2.01171016823688
C        -2.49045886564999    1.04234212592458    4.00033269797157
C        -1.21645622585788    0.32534353284797    3.70972856550273
C        -0.87669927199453   -0.97694254848848    4.22728588087346
C        -1.72221073967946   -1.77102214105637    5.16524076109269
C         0.52135227556710   -1.20755934132409    3.95787812010182
C         1.35269092288831   -2.28364687899851    4.56924124778449
C         0.99995918459390   -0.12066037390675    3.17751479239589
C         2.41255943336601    0.15366658939419    2.78969476147501
C        -0.08593061542598    0.83267749356205    3.01824517532219
C         0.08970376157613    2.19369536813212    2.43443824492739
H        -2.46275671615515    1.39434257227419    5.03234478574541
H        -3.35265508822255    0.38764934864633    3.89606070945588
H        -2.61493788607633    1.90838499854695    3.35636656553226
H        -2.77842230965518   -1.63246715715027    4.95324474865023
H        -1.48994175587105   -2.83073102828224    5.10804570342288
H        -1.53414957130835   -1.43781520901834    6.18658082509048
H         0.75678675452014   -3.15951195639178    4.80991099926427
H         2.17623844428586   -2.56917663332524    3.92040206732906
H         1.77716427908499   -1.90383814875295    5.49974360146878
H         2.46629473041591    0.50636321015375    1.76179751107799
H         3.03423339293965   -0.73123635968335    2.89067892788554
H         2.81660659689303    0.93535597875000    3.43365393878967
H        -0.86095365104093    2.70340914636111    2.30978782671339
H         0.57976013154321    2.13191132365924    1.46488266511359
H         0.72068880690576    2.79168470829979    3.09240840505104
C         5.32900229282096   -3.69011506192134    1.28026264120185
C         4.20769662414292   -3.88331350330873    0.61144843201367
C         2.93328217765922   -4.38218397213580    1.21846966255233
C         1.77226969035489   -3.42986800461929    0.92274644015789
C         0.47194626471483   -3.93307473944195    1.56214888130564
N        -0.60668735816314   -3.00580964598093    1.33236972071971
C        -1.55716174494328   -3.33323673029515    0.52401950289138
C        -2.58989909819601   -2.37080632987426    0.29207073157783
C        -3.67029142560893   -2.55137131597954   -0.57652307120774
C        -4.58967727961093   -1.54091994675916   -0.72864731202561
C        -4.41648601018339   -0.34234888520680   -0.01478429693042
C        -5.36288351710800    0.73539039706681   -0.13792301889908
C        -5.43164550333709    1.97919240650271    0.45590178950303
C        -6.59411310331934    2.59456364362664   -0.04456951056194
C        -7.15430414602133    1.69285350507109   -0.90522018672397
O        -6.42447418740784    0.57706317254996   -0.96687334253655
C        -3.30248854297638   -0.23731788794326    0.82519087606296
N        -2.42781165848408   -1.21666044167196    0.98684582160055
H         5.40251701471606   -3.88566947440648    2.33760026801859
H         6.22608227647950   -3.33810690096911    0.80063660734511
H         4.16546172474322   -3.68092090073102   -0.45049973448363
H         3.06222677799201   -4.50210018103267    2.29546003281024
H         2.70527453421732   -5.36466276467479    0.79607024832238
H         1.63043889302889   -3.34261890001355   -0.15536882513834
H         2.00197309255894   -2.43281153157172    1.30044315762190
H         0.21953599961473   -4.91410163163350    1.14696847579639
H         0.61817363361174   -4.03347755340602    2.63922156597222
H        -1.58304641349846   -4.29721926068920    0.02659854471705
H        -3.76435024399309   -3.47749404649648   -1.12000022500836
H        -5.43553104070524   -1.64978288863650   -1.38827339827594
H        -4.74521191466792    2.40179466152901    1.15907414223505
H        -6.96581249696633    3.56836499702497    0.19814983901740
H        -8.04025628661102    1.73619298519021   -1.50755591684039
H        -3.12533299934594    0.67233582951851    1.37603414591439
Cl        0.21005305218288   -0.41986089415925   -0.12329938499680
