85
 energy: -129.218740206156 gnorm: 0.000497745016 xtb: 6.4.1 (afa7bdf)
Ir       -0.19377318990438   -0.01188753435759    1.80354981669927
C        -1.68952662886227    1.62836281839450    4.35229991243469
C        -0.47725493227715    0.94642160465949    3.82121587473022
C        -0.21242061351904   -0.45443686839904    3.97439995274067
C         1.12075898644058   -0.70647577968695    3.49469083442440
C         1.89066360569982   -1.96615717121035    3.68239879085282
C         1.64429433981042    0.51093083434646    2.97191259412095
C         0.65511511300419    1.55277353654807    3.17986370352786
C         0.92773312696774    2.98768936093095    3.03443797269629
C         0.60680079726753    3.87631908119238    4.06150634278146
C         0.87299952898943    5.22492213771758    3.93084365178348
C         1.47292094363390    5.73004744054538    2.77836344670389
C         1.74263114589315    7.16840793116990    2.64049074123521
C         2.94205964804713    7.61683407245285    2.09128067099671
C         3.19633857589733    8.97051117706929    1.96932528489442
C         2.25450447668678    9.89739640785992    2.38588513774162
C         1.05631787319564    9.46209245403740    2.92846591826660
C         0.80340808657594    8.10908887612006    3.05847155199552
C         1.81117856115429    4.83711580077021    1.76173487530706
C         1.54527866494824    3.48918370121649    1.88527280058739
C         3.04315386102842    0.72742309424220    2.50786624871310
C        -1.06074441888172   -1.40962552143618    4.74341319476945
H        -1.58421685214671    1.74766252612467    5.43143238748808
H        -2.58090720030234    1.03048965903384    4.17544845164717
H        -1.81818388857712    2.60759690350397    3.90387982504593
H         2.44003428615562   -1.89958104365463    4.62275994226301
H         2.60796123229777   -2.11607663859423    2.87966460266274
H         1.23659243082737   -2.83177869033411    3.73630235491459
H         0.17689746083010    3.50827313714540    4.97923863024477
H         0.63155141958567    5.89555167448390    4.74177969357824
H         3.68901925994014    6.90201845138848    1.77858458748549
H         4.13391400474659    9.30533839385500    1.54964197721030
H         2.45452026147957   10.95439836440403    2.28842432503281
H         0.31726469130034   10.18092851068559    3.25109230789026
H        -0.13911621088254    7.77776243714896    3.46891082893507
H         2.26371428282291    5.20915907888619    0.85494017769079
H         1.77340694087458    2.82154780842236    1.06918042942575
H         3.11143040166950    0.65792361960506    1.42295440486285
H         3.37824213624199    1.72190875460065    2.79631240489578
H         3.70721187546759   -0.01637830526086    2.94015956844134
H        -2.11731202942604   -1.19937402294688    4.60021557232121
H        -0.86176922577421   -2.43669000041584    4.45053803188372
H        -0.83834377238091   -1.31217881945979    5.80659672020174
O         3.07907071991193   -6.98286032493499    0.96277020994474
N         3.35787514770646   -5.87527967354194    0.53802708869796
O         4.42450420038635   -5.59638437917113    0.01999853477551
C         2.37255128261495   -4.84190445722394    0.65290730208518
C         2.65902095137063   -3.56162127812147    0.18373393079982
C         1.70676688692174   -2.57014361345940    0.28780244412177
C         0.45772882225597   -2.85541136995736    0.84512441132275
N        -0.51399881598047   -1.85637702812767    0.94509593383337
C        -1.72950926001354   -2.10228490682098    0.59087489039728
C        -2.72854142778735   -1.09271496885827    0.78819966128073
C        -4.07373520438106   -1.40826445611552    0.70671502609695
C        -4.99902004838486   -0.43016670666030    1.07118505384572
C        -4.54991022766012    0.82938274856009    1.35955568007275
C        -3.16577839307707    1.15027935384761    1.26066063139237
N        -2.76486361952620    2.42630158545573    1.30835617211520
C        -1.56393520220871    2.87406196536943    0.62660049435052
C        -1.86702769487727    4.13859839812168   -0.17197492631878
C        -2.20326576329561    5.29704503550978    0.77176847515480
C        -2.85634166232259    4.75510956315694    2.04710716326332
C        -3.65716291279037    3.48985333175189    1.75475046343421
N        -2.26199417256605    0.14635512278211    1.10948101095408
C         0.18618585697238   -4.14193151856973    1.32736137175192
C         1.13972694028009   -5.13250650922641    1.23260995454959
H         3.62380313475325   -3.36551567145688   -0.25731121136904
H         1.90228875790374   -1.57627525685453   -0.08280179360535
H        -2.00944257677516   -3.05128258358426    0.14457852041415
H        -4.38407810459039   -2.39641762074068    0.41428469832701
H        -6.05250914637785   -0.65793949880631    1.10108432074605
H        -5.25391700732122    1.60346235353908    1.60786135881167
H        -0.76658297013354    3.08937056600750    1.33794603177352
H        -1.23235466509764    2.08531714789265   -0.04652205921826
H        -2.69912453880354    3.94291729258518   -0.84994219244787
H        -0.99856215888044    4.38386912864055   -0.78174249870897
H        -1.29614053360096    5.84145458366275    1.03676482492523
H        -2.87136512601552    5.99680616290070    0.26903884185275
H        -2.08644292246908    4.53572238512856    2.78828840820159
H        -3.52394831677543    5.50078111048875    2.47871844310540
H        -4.41012338384963    3.71309848704783    0.99043162263795
H        -4.16361092852660    3.16636590445581    2.66659819880302
H        -0.76623965657752   -4.35310847085178    1.78868512743027
H         0.94944546790755   -6.13074538175935    1.59501008430988
Cl        0.70632321460210    0.58532019515839   -0.32682324614674
