78
 energy: -116.344558162378 gnorm: 0.000603327082 xtb: 6.4.1 (afa7bdf)
Ir       -0.55532305574727   -0.96739690796999    1.35140740653083
C        -2.11228392433203    1.01095304015150    3.68092675606576
C        -0.87000645971367    0.38296050979867    3.14499348576764
C        -0.42124225388518   -0.92169042955863    3.57169191850317
C        -1.09072088503253   -1.76377548180924    4.60416300489500
C         0.91635801487000   -1.11528727662098    3.08605271619058
C         1.82747450781291   -2.20666198062623    3.52908855408479
C         1.23831692965696   -0.00674311342600    2.25397964763480
C         2.56579774078437    0.27156791697330    1.63319678627815
C         0.12788293306306    0.94024487718348    2.29881332209719
C         0.23672584743514    2.34305676432082    1.76341798154708
C        -0.92051594270934    2.78173608003231    0.85934611840792
C        -0.64098080173076    4.17630866325901    0.30506535834832
C        -0.45885549287926    5.17804347512072    1.44302909672362
C         0.67366915143918    4.73796620138605    2.36731193060634
C         0.40773545560303    3.34053067599420    2.92059334553094
H        -2.95511305255684    0.32498919444334    3.62249877437350
H        -2.36180985659065    1.93062049478335    3.16463559525848
H        -1.95175085246015    1.24326409332404    4.73447212549544
H        -0.78974669381498   -2.80356386383849    4.51355265897397
H        -0.79965643586613   -1.41312225955491    5.59497371899195
H        -2.17240315100970   -1.70025085465565    4.52816383515363
H         1.30940957602505   -3.16072333928022    3.58640776685712
H         2.67777334645355   -2.31557642366637    2.86357015844690
H         2.19839021255748   -1.96366867223316    4.52545086003810
H         3.18992492208567   -0.61696187110070    1.63223933154517
H         2.44893833661105    0.61398237577051    0.60686558213633
H         3.07588090663773    1.05172289794294    2.19842188730267
H         1.14274369014732    2.38727296010657    1.15206717723565
H        -1.85567912084490    2.81683355824531    1.41913546319583
H        -1.02366329345360    2.06745409631972    0.04060907156320
H        -1.46506077633658    4.49142711648736   -0.33835762509665
H         0.26348004392786    4.15210766025571   -0.30653239685677
H        -1.38679677796035    5.25478536279897    2.01500350214836
H        -0.23984035783271    6.16664969719256    1.03488549903352
H         0.77606439442147    5.44533748010933    3.19273364379139
H         1.61372179204148    4.73904928172585    1.81076255184733
H        -0.49399041166553    3.36088336059415    3.53296415474737
H         1.23828705191551    3.02842545144831    3.55635665134810
C         4.80297730020356   -9.56944172003198    2.36963157698390
O         4.86074099251894   -8.26416026713054    1.82847132738407
C         3.72793563789916   -7.52882364862454    1.74281284096845
C         2.45625261523843   -7.97452956794947    2.16574466768188
C         1.36409312894205   -7.16251516685589    2.04402610255189
C         1.47195736543168   -5.86744150911294    1.49538799653869
C         0.35830591508803   -5.02281198739420    1.35470120486751
C         0.50405765859939   -3.75091413652601    0.84262631124412
N        -0.59057716304175   -2.89291854352342    0.71787112499163
C        -1.69484744417290   -3.31594019486656    0.18527455745056
C        -2.76786530016268   -2.37728572984195    0.09440776132057
C        -3.97937026142659   -2.61956302837517   -0.56254272070633
C        -4.90193728472648   -1.60537686624166   -0.65053366773900
Br       -6.56358100566794   -1.84608902416741   -1.53911328619872
C        -4.62070658103406   -0.34300645124543   -0.08012475687023
O        -5.54885875551905    0.59859777086733   -0.20230214433242
C        -5.30952069353839    1.89848590663011    0.31812591277093
C        -3.39486543333193   -0.19741418490428    0.57163987465349
N        -2.50078753666385   -1.17728977863963    0.65900518079675
C         1.77917989460048   -3.29035157832480    0.43709414620761
C         2.86421002789851   -4.10801975375661    0.53277661055266
C         2.75281058349447   -5.41333308244537    1.07136094950303
C         3.85849693255080   -6.26107514628453    1.20475578451367
H         4.46221557499135   -9.55529593922743    3.40864973532750
H         4.15581749875602  -10.21969824359916    1.77464528105588
H         5.82394348943634   -9.94441571945940    2.33030371015013
H         2.33999310665782   -8.95968685041009    2.58770274222404
H         0.39635341200507   -7.51360706131279    2.36948489061107
H        -0.60915411423021   -5.36733065726876    1.68923045496993
H        -1.78617694736846   -4.31628278882263   -0.22024019743438
H        -4.17138076974914   -3.58237102862431   -1.00673881638284
H        -6.18643208799209    2.48126786084083    0.04547205509657
H        -5.21311153491226    1.86898947036090    1.40524738019333
H        -4.41921895736172    2.34119024361862   -0.13290922394075
H        -3.12044696417200    0.74141533362613    1.02535015499262
H         1.85347826575557   -2.30003043537270    0.01528011837405
H         3.83304330761647   -3.77071187961305    0.19762753661934
H         4.83479413850631   -5.93111813153534    0.88645213569444
Cl       -0.07673026821997   -0.36763029593029   -0.91448172939470
