75
 energy: -136.246816708496 gnorm: 0.000976773657 xtb: 6.4.1 (afa7bdf)
Ir       -1.20328266296565   -0.60991897364645    2.22752486163310
C        -2.39644789571227    2.21323023945676    3.67099925332310
C        -1.39195709510122    1.10892218735984    3.60924162809839
C        -1.43448615653483   -0.09183431712969    4.39866337136822
C        -0.19030154002328   -0.78003711066504    4.23252065105879
C         0.26828539161369   -1.93219442321017    5.05382307024542
C         0.64072819230242    0.00950957922650    3.35089973829481
C        -0.06618788110928    1.21665440036675    3.03497425252817
C         0.47580798644270    2.41570627003268    2.40699734751556
C         1.75731893632595    2.85954221714522    2.74995279841371
C         2.25402353560229    4.03844206553654    2.23575557241662
C         1.50316804427317    4.80888441373456    1.34780625134977
C         2.03232147932668    6.06583502162237    0.80265864851362
C         1.82136038964545    6.40665241336897   -0.53232982271707
C         2.31395897422576    7.59416042544637   -1.04098875685783
C         3.01810572418276    8.46375714411367   -0.22417867257585
C         3.23132600701178    8.13609470818941    1.10505662859497
C         2.74621318680331    6.94585116614085    1.61453647075131
C         0.22823645685586    4.36135795721445    1.00120865746726
C        -0.28264041224748    3.19451587162832    1.52877375521217
C         2.06760590710895   -0.29930551661815    3.04544719365486
C        -2.49807676676962   -0.47093036018723    5.36940264760152
H        -1.88753099856879    3.17408268748589    3.63859636395360
H        -2.97441857363542    2.15038842436916    4.58894544779825
H        -3.08548992274797    2.18175480966254    2.82843056465555
H         0.65870647555084   -1.53992602607615    5.99422976162190
H         1.06575143412679   -2.48535654016196    4.56848949501963
H        -0.55056949605930   -2.60329443271870    5.29446972589019
H         2.34977402557596    2.30459506120190    3.45824759631271
H         3.24608878947627    4.36218921460083    2.51238843513449
H         1.28809723472972    5.72655982745382   -1.18071201181936
H         2.14809440892468    7.84365391928646   -2.07901870649735
H         3.39878851569467    9.39290406847330   -0.62186214143197
H         3.77724392500258    8.81268091460814    1.74643067988012
H         2.90037076642653    6.70750921070656    2.65691564796202
H        -0.37624792301502    4.94984590047118    0.32739737645793
H        -1.26222901093941    2.86330251384393    1.22630734339432
H         2.20988695007782   -1.36375411124823    2.87695183648862
H         2.40348705056774    0.24244229500988    2.16548752223665
H         2.69032948844621   -0.01757113470578    3.89470460443079
H        -3.45488288826348   -0.02012555030271    5.12222042658044
H        -2.61899173003309   -1.54931297000373    5.42579871344483
H        -2.20457401895744   -0.11663764685010    6.35893608606244
O         0.96713346832379   -3.87449283600574    2.62472579106702
C         1.38467939844718   -3.34718710971789    1.46949746223183
C         2.69855450870188   -3.59006616680826    1.06517858224950
C         3.17226951334185   -3.10174844269235   -0.13379808919803
C         2.32516328852774   -2.36922928315814   -0.96248648940357
C         2.82429488697031   -1.81191345784017   -2.26312785502212
F         3.21549660965791   -0.52299473778311   -2.15155726886653
F         1.88641080326017   -1.82690412049098   -3.22814878335587
F         3.88224250414871   -2.47725422123527   -2.75185406615172
C         1.01686993754663   -2.11538869237204   -0.58420809534124
C         0.54659512983025   -2.58132716394322    0.63871388616232
N        -0.76412373825263   -2.26683901562788    1.04861326218939
C        -1.76558622219830   -2.69436414698508    0.33977264835552
C        -3.07258255462210   -2.25219211223178    0.71507326073417
C        -4.25264296403046   -2.68510565352271    0.10155050324212
C        -5.46053773615728   -2.17611450956588    0.52795140104392
C        -5.44872408313404   -1.23297115442964    1.56130811640318
C        -6.74413952316928   -0.62788133686633    2.03773387694254
F        -7.71288279311596   -1.54439547950599    2.16564760193413
F        -7.20554680188775    0.29966192173994    1.18064745148012
F        -6.62123335931140   -0.02130971175791    3.22595343808052
C        -4.24614665892640   -0.84017784421664    2.12375975575153
N        -3.08139145244649   -1.34084177536398    1.72411551497397
H         0.01451526098746   -3.75679525373404    2.76046129627631
H         3.33030257468117   -4.17553322099646    1.71295041914720
H         4.18862696008689   -3.29490599838023   -0.43791826094715
H         0.36573169476340   -1.52402866497926   -1.20917807131191
H        -1.62057015660040   -3.35188029038433   -0.50957158581164
H        -4.20556359082566   -3.40595519603460   -0.69875161452331
H        -6.39290679293843   -2.48988912669551    0.08463709887321
H        -4.22391939899002   -0.10923941869357    2.91897451869672
Cl       -1.36985401676517    0.42784740608961    0.09275298108802
