64
 energy: -112.025208202913 gnorm: 0.000919284706 xtb: 6.4.1 (afa7bdf)
Ir       -0.01317298531311   -1.00912015780349    1.74695667110318
C        -2.12245788486462    0.98069006026422    3.68770690914458
C        -0.80560726275699    0.33515668039779    3.45373806743099
C        -0.45816449563658   -0.97017551904070    3.94976229256011
C        -1.35821183140007   -1.83368036128555    4.76623129473391
C         0.96195466990419   -1.12926388252852    3.82189302291409
C         1.77864337329927   -2.09618743855575    4.59646098055540
C         1.46447767775310   -0.01738065973966    3.06884741957651
C         2.90132252942742    0.30996718498311    2.86429343275845
C         0.35672495167006    0.90909984379368    2.86552925703130
C         0.51789576472078    2.31214174175949    2.45103975537395
C         0.15425334804890    3.31993467143446    3.34302421359835
C         0.35165344705095    4.63886379684302    2.98168040150849
F         0.00110673940086    5.60638397082746    3.85378325248505
C         0.89511228112887    5.00599500603429    1.76393685445501
C         1.24478877443752    3.98145193238114    0.90205623155085
F         1.77665914317781    4.30080826562072   -0.29552637770409
C         1.07231153229786    2.64823547846428    1.21966075874478
H        -2.18498028247265    1.95031957095372    3.20485462606734
H        -2.24968171924379    1.11296159283417    4.76329600435469
H        -2.94319123826976    0.35474752134158    3.34341112848801
H        -1.06777124322005   -2.87830115756837    4.70086792806550
H        -1.29249417033098   -1.52939694048960    5.81155109659601
H        -2.39240337114611   -1.73289151812705    4.45000239343102
H         2.00263648489389   -1.62797249250594    5.55713349466626
H         1.23616918760683   -3.01537524956759    4.79820539858094
H         2.72897105655679   -2.30524743454767    4.11409755926179
H         3.51387535239507   -0.58766353723689    2.86984393364238
H         3.05499429920896    0.84712034347345    1.93293693549253
H         3.23265500621089    0.95300050282133    3.68030680179886
H        -0.25229876902422    3.09348383840311    4.31489288505617
H         1.03904890825318    6.03996226342839    1.49875025177508
H         1.33440900077427    1.88721080276284    0.50201677341861
C         6.71214313377359   -4.12616625911572    2.79881294289477
O         5.54809527632369   -4.44705531336370    2.03357625764151
C         4.47581592095120   -3.68527134438974    2.17917550967979
O         4.40760507991406   -2.73552462799898    2.92518056127784
C         3.34773204847453   -4.14635440219207    1.29239016175214
C         1.99627711464661   -4.48305327812866    1.96073416154668
C         1.28597640429076   -3.75763893663637    0.79808947759379
N         0.11409556102152   -2.95397933552449    1.03144385025421
C        -1.00263837334151   -3.43287127298710    0.59403003726825
C        -2.13415258214222   -2.56427496542668    0.45947443625080
N        -1.87462702735291   -1.25829413809810    0.70117585127082
C        -2.75626964690631   -0.34894905235660    0.29668697320718
Br       -2.25589366670180    1.46919522452923    0.36194719526877
C        -4.00115615509388   -0.68292084364315   -0.22886857513985
C        -4.33125860325003   -2.01912380697010   -0.38895336249460
C        -3.36664205442050   -2.96049975886186   -0.07149098595012
F        -3.58980700537538   -4.25772270436697   -0.28222701953162
C         2.61332944370870   -3.04000182571301    0.51032214689304
H         6.42425704977608   -3.68292960760283    3.75318758704624
H         7.32851037538612   -3.41969032722229    2.24098680862394
H         7.25025303045309   -5.05853900031569    2.94866350666694
H         3.70841469081970   -4.95127857814857    0.65416158862401
H         1.76103158947357   -5.53670491113057    2.07911175071436
H         1.87560940226936   -3.95773192458803    2.90016502866159
H         1.06695257270116   -4.47604227110651    0.00257407968574
H        -1.08021839308416   -4.44076729069081    0.19602617551083
H        -4.68748886146551    0.09870835258650   -0.51400704873930
H        -5.28702545583717   -2.32555458013790   -0.78441579194551
H         2.87216942339728   -2.90742900334579   -0.53529366495906
H         2.67316455214159   -2.08465022134023    1.02783190343393
Cl        0.83083188090416   -0.40723771554230   -0.40343619152285
