55
 energy: -88.906564835299 gnorm: 0.000799468706 xtb: 6.4.1 (afa7bdf)
Ir       -0.71504393386099   -0.91036469328278    1.24993623035925
C        -2.18064826918730    1.68457121138541    2.96408005051633
C        -0.99933657564038    0.82049297892083    2.68051116503126
C        -0.66345772227023   -0.38637125091814    3.41132625905177
C        -1.43527807625260   -0.93104485456331    4.56354288716618
C         0.66426531615758   -0.77525275672096    3.03422329238232
C         1.48290677022413   -1.82586325759761    3.69808236367090
C         1.10179643929469    0.10780814940174    1.99700289128996
C         2.47865570553991    0.20256898829457    1.43460147913651
C         0.08174936302422    1.12681423797722    1.81793702217085
C         0.26314111470731    2.34893966073952    0.98903583532185
H        -1.92552689726341    2.36853524678261    3.77461638250758
H        -3.03686775965705    1.09734539180903    3.28493233477126
H        -2.45386991120424    2.28264683861369    2.09845655455174
H        -2.50461721816500   -0.80322258047771    4.42094881880785
H        -1.22385667695345   -1.98505327195649    4.71796109628897
H        -1.14838989908620   -0.39255593501305    5.46773761567988
H         0.86065226876419   -2.62752704388411    4.08427270740178
H         2.21848369624632   -2.24525135135721    3.01760152680422
H         2.01308637368133   -1.37455531137042    4.53706188101070
H         2.44867050038542    0.49103161032248    0.38683915104094
H         3.01154552303515   -0.73856244899150    1.53053912867636
H         3.03167625484108    0.96994753375950    1.97747403978177
H        -0.64999202013630    2.93296484895500    0.93161338481833
H         0.57270758634363    2.08616039120948   -0.02065716835167
H         1.04707463318391    2.96477906484350    1.43008715999621
C         1.17275222609448   -7.18030871089839    2.98147359167226
O         2.25596298208247   -6.55155749600801    2.31803026634237
C         2.03586924408752   -5.40242452641678    1.65652460623092
C         0.81627682510272   -4.73927157760223    1.56453180386811
C         0.71707532981548   -3.53337696667468    0.86765706458949
N        -0.51335991267290   -2.86429617424947    0.78856057256413
C        -1.57229676691304   -3.49554474734565    0.38519352553763
C        -2.78405964461162   -2.74123742305762    0.30097163218758
C        -3.98159444125976   -3.22379034225921   -0.23627024626188
C        -5.06993334646516   -2.38274426461223   -0.32828846114670
C        -4.92290915263235   -1.06916850012414    0.11674888842766
Br       -6.37313379028403    0.16025698778849    0.01761143122727
C        -3.71047943209680   -0.65013163555265    0.64722574042531
N        -2.66926198554061   -1.46441161988989    0.74740958269171
C         1.82681336444141   -2.97865078329668    0.23891178972443
C         3.04112204869644   -3.64051897370853    0.30088481780041
C         3.13830409601440   -4.82301388801007    1.00312661998934
F         4.33000064463059   -5.45039456754876    1.07088902496075
H         0.75586084019112   -6.53265980092209    3.75641431357088
H         0.39392967924384   -7.47357843701882    2.27325762307597
H         1.59680855271821   -8.06972781543780    3.44223397555080
H        -0.05924101894473   -5.13446754138564    2.05303107193950
H        -1.53336995580309   -4.53133489206519    0.07003035215508
H        -4.03950254892421   -4.24211949014005   -0.58521349605381
H        -6.00739945884466   -2.72262726851283   -0.73905520615818
H        -3.58613301915975    0.36484450959154    0.99369529529203
H         1.71848734293644   -2.06647076474267   -0.32411847292506
H         3.91707348385612   -3.24957157754517   -0.19110952673957
Cl       -0.51648777148557   -0.44588510925379   -1.08037327044478
