68
 energy: -122.539419260943 gnorm: 0.000504901877 xtb: 6.4.1 (afa7bdf)
Ir       -0.59703884310571   -0.89206549646604    1.25543874115348
C        -1.70478687337548    1.47640588749121    3.62074362650582
C        -0.61175840133449    0.70080594006409    2.98072833008556
C        -0.15451789680902   -0.58356797121119    3.44809029133651
C        -0.68626703579998   -1.30564208383574    4.63545639127040
C         1.06358842673108   -0.89585371148894    2.76332117636248
C         2.02015964325699   -1.96075336937104    3.16484820437705
C         1.28203426063956    0.10993113662999    1.76335201469061
C         2.52812647002273    0.27528805473351    0.96606627890913
C         0.23976541158868    1.11959279149331    1.92283975055913
C         0.26358816789678    2.46069028661583    1.31404818160406
C         0.31538281775101    3.57701878060210    2.14781981830643
C         0.36808290219274    4.83654349696537    1.58186543439594
F         0.42048088365481    5.90920690509356    2.39762493178080
C         0.36969523306648    5.04043065884082    0.21373997179093
C         0.31981081293637    3.91208748743869   -0.58555860591310
F         0.31900276889374    4.07108861282335   -1.92459650333192
C         0.27046996089856    2.63223964935577   -0.06731673850621
H        -1.93538334179955    2.37648314021742    3.06041277948865
H        -1.38600071523435    1.75603762342601    4.62578104254677
H        -2.60816134207205    0.87923969421762    3.72269155098221
H        -0.72278598969901   -2.37692091229300    4.45259095258157
H        -0.03025175332176   -1.12883407066513    5.48758962802924
H        -1.68345438471079   -0.96102824464749    4.88918573464168
H         2.67977253217568   -1.55265459704454    3.93183548353845
H         1.49773869226765   -2.81409170616645    3.58744612376642
H         2.63273088662260   -2.28753711844546    2.33017238327072
H         2.91376431770930   -0.68765315449258    0.64309079596058
H         2.35664422150553    0.90165332291378    0.09609680257771
H         3.28422105837611    0.75218446780512    1.59057141700323
H         0.33749976860209    3.47683366128514    3.22032770887939
H         0.40721325554544    6.03035087006224   -0.20907120585502
H         0.20354289032680    1.78734183471023   -0.73412589187072
C        -1.26001759371990   -6.89876174243896    4.08148731977934
O        -0.41279061175012   -6.45604969571747    3.01987680788774
C        -0.35273642593038   -5.15739871845559    2.77653758150550
O        -0.99266602238571   -4.31668851516817    3.37137181073918
C         0.62639023079458   -4.83622180633000    1.69742039822809
C         1.75574467969658   -5.62025488399135    1.55536745957165
C         2.76273167242300   -5.29104795429415    0.63680164863641
O         3.79842609218720   -6.13498977516836    0.57489946834863
C         4.86639489821110   -5.86639477817423   -0.31999788170937
C         2.62496073016968   -4.12221175865767   -0.11949981096994
C         1.50697756374662   -3.32752757362333    0.02872562996795
C         0.48581722298431   -3.67176111449398    0.91431989138559
N        -0.66411319300310   -2.88014466952575    0.94318245591688
C        -1.82575931599985   -3.43017330818376    0.78233622305713
C        -2.95847982429314   -2.56592124422418    0.69762846009565
N        -2.68748626897632   -1.24517156965934    0.83504387490931
C        -3.65570810125711   -0.37237592661261    0.57229163779797
Br       -3.21009661715952    1.45620138427415    0.57440469401594
C        -4.95839395999215   -0.74300635756668    0.26296843465766
C        -5.27438188452940   -2.09134804522053    0.18217693717841
C        -4.25232793305098   -3.00018744867009    0.38073422881276
F        -4.47651159305377   -4.31109247248435    0.26115639630283
H        -0.71294928123475   -6.85564316369484    5.02459523778777
H        -2.14640940419924   -6.26656069023236    4.14794897531630
H        -1.53005303601474   -7.92533895096187    3.84891109148721
H         1.88213332219086   -6.50231077850826    2.16128388401171
H         5.36264382922030   -4.92580118759245   -0.07017945773030
H         4.51742703467807   -5.84214686506289   -1.35493665950817
H         5.56462743301615   -6.69057379597608   -0.19200766392230
H         3.37867783942330   -3.83244502156647   -0.83298721818497
H         1.38523227096038   -2.44356516874354   -0.57896605351106
H        -1.94216861284173   -4.49640231649045    0.62448388078849
H        -5.70458435508140    0.01472268100850    0.08580356768982
H        -6.27228072851322   -2.42814620625008   -0.05113376341828
Cl       -0.51396586221495   -0.61782942820496   -1.11069608782095
