73
 energy: -103.370062956340 gnorm: 0.000408260981 xtb: 6.4.1 (afa7bdf)
Ir       -0.78300833885594   -0.57811053048193    0.48017082741996
C        -2.18715028334928    1.59038269324556    2.81055842661474
C        -1.02388198019969    0.80640036167437    2.30578889831100
C        -0.73822667374640   -0.54998938856468    2.70698700099523
C        -1.53829757344255   -1.32971923188276    3.69574534930556
C         0.59356379827123   -0.87081480759586    2.26535643141793
C         1.40814260073989   -2.01815582020861    2.75519251599974
C         1.05535917666304    0.20823805941572    1.46116667163958
C         2.42514886472110    0.38420189971800    0.89854681882768
C         0.05254621669294    1.26087625706811    1.50451509628058
C         0.29137801117196    2.63794396747902    0.98046151509398
H        -2.08351761709728    1.70993721572218    3.88938476435703
H        -3.12798938797210    1.07783628318761    2.62076845322735
H        -2.23214519259599    2.57576317382671    2.35839154525137
H        -2.59592799404629   -1.09558515377859    3.61135342664884
H        -1.40358416778919   -2.39914684458562    3.55761481455137
H        -1.21290381836408   -1.07549365591498    4.70536904108312
H         0.79003096718542   -2.88208469299241    2.98503767455147
H         2.18352504883075   -2.29537424286389    2.04580210370685
H         1.90175703440395   -1.71101855549564    3.67897577130805
H         2.38018807313535    0.87280236387617   -0.07202485914848
H         2.93440973780260   -0.56858907145708    0.78662191383846
H         3.01281959414381    1.01372946039162    1.56771147396386
H        -0.55973524050439    3.28920184767651    1.15800888793763
H         0.50000472846581    2.61377784462094   -0.08852511952770
H         1.16269434459964    3.06356002755694    1.47805432521235
C        -7.23241656902911    5.64432338422409   -0.94047262362546
C        -5.97760507173555    4.81202613579190   -0.72852177417794
O        -6.33637076296900    3.44281727955860   -0.88461086358031
C        -5.41545705801916    2.48094944073086   -0.73414577737293
C        -4.05500362743600    2.71114135155665   -0.42409225586061
C        -3.18955512490593    1.66633499083599   -0.25780810231263
C        -3.61185071225432    0.33252646886495   -0.40591285772639
N        -2.74587314119208   -0.69249254364112   -0.23285300911744
C        -3.12809804907043   -1.93241636213969   -0.57030550011122
C        -2.07590756929065   -2.90113667087664   -0.53314374837613
N        -0.90886559709692   -2.51004455056526   -0.14830798676190
C         0.19515958865119   -3.43429408396568   -0.21575185173109
C         1.19066736733146   -3.03953520410820   -1.31526458384296
C         0.60457693446853   -3.22816573653810   -2.71815898137160
C         1.65535535954618   -2.96382054168876   -3.76111566759290
C         2.32738419750179   -4.00933154708820   -4.38038825224300
C         3.30992774179289   -3.75700713046219   -5.32282307273767
C         3.63591798103924   -2.45263685048941   -5.65335259138538
C         2.97415182178236   -1.40300437028460   -5.03683249369086
C         1.99121722987502   -1.65785407249986   -4.09758349209325
C        -4.44485955243306   -2.23729957974149   -0.97407203952249
C        -5.36973095367104   -1.23787540837796   -1.04141419040466
C        -4.96919911740855    0.09565655105389   -0.78681385232233
C        -5.84444304417348    1.17598960425498   -0.91969102658600
H        -6.99523146330869    6.69763229886965   -0.82391682890642
H        -7.62801043188727    5.47739111501349   -1.93835898517964
H        -7.99236861196452    5.36797165609956   -0.21475505684548
H        -5.21435027530472    5.08272451173910   -1.46889656689090
H        -5.57940859216193    4.97923959651570    0.28005769615262
H        -3.68657274944784    3.71968334806292   -0.33005561381848
H        -2.14616326765604    1.85313887433362   -0.06615918032881
H        -2.25859674609305   -3.91748185027004   -0.86555995640141
H        -0.17704703283286   -4.44546935319510   -0.41039406312176
H         0.71252632559701   -3.42766884459098    0.74333799887114
H         2.08082463338479   -3.66049998305504   -1.20853772668879
H         1.47874708843025   -1.99542787701834   -1.18891933522338
H        -0.22370646034475   -2.53052090622769   -2.85518345319695
H         0.23032779236706   -4.24786957653995   -2.82839069107987
H         2.07922419040820   -5.03156805595368   -4.13074272127188
H         3.82186962217534   -4.57972190062140   -5.80166116513950
H         4.40118313989238   -2.25483123604195   -6.39029696218590
H         3.22450193535051   -0.38330780923201   -5.29290085569628
H         1.47312099251456   -0.83837669275209   -3.62199997356928
H        -4.69440702415673   -3.25837404786964   -1.21138244676719
H        -6.39412983180928   -1.43720576282108   -1.31455724526870
H        -6.87265543341416    1.00160133417074   -1.19323972609664
Cl       -0.25161299988340    0.19713914733434   -1.70784531564211
