70
 energy: -102.518483034192 gnorm: 0.000438082227 xtb: 6.4.1 (afa7bdf)
Ir       -0.97387030236231   -0.77898981800342    1.33089624636394
C        -2.31557851106650    1.49289636081438    3.64147190410458
C        -1.21393314188019    0.61165615323030    3.15449447848933
C        -1.11949921965990   -0.78044939483364    3.54827472681356
C        -2.08936256568265   -1.47121516054914    4.44576559962131
C         0.18949738763397   -1.25060883478643    3.21264265252664
C         0.79235279791503   -2.52651373617847    3.68641930088148
C         0.84161354850787   -0.21875268174397    2.47136992883096
C         2.27399541910809   -0.22536256599943    2.05186912410633
C        -0.01369530798507    0.96183862393706    2.48383903786494
C         0.49855042694772    2.32362251163050    2.10186394024741
C        -0.38175402583941    3.12971867759311    1.14168883938334
C         0.31623478674345    4.43879526660944    0.78189788861957
C         0.59857525847983    5.25877413972800    2.03834571804942
C         1.45051877715602    4.45714708478733    3.01895189187767
C         0.76587469532179    3.14123097276705    3.37807566797892
H        -3.29100082697963    1.05455540362347    3.44103002614770
H        -2.27947766920907    2.47939097536570    3.19489645684606
H        -2.21459355577884    1.59782201917994    4.72257115348969
H        -2.01216472186278   -2.55066859054641    4.35341436816571
H        -1.87037140363552   -1.20410838903133    5.48034267561196
H        -3.10990432387410   -1.16906829750189    4.22869752565685
H         0.05193017726652   -3.31909329749339    3.75221268877496
H         1.60352790464129   -2.85435804850238    3.04290830558312
H         1.19695369798988   -2.36186858014747    4.68597729957438
H         2.66027750892146   -1.23907410704137    2.00266609906717
H         2.39803362372736    0.24049352535344    1.07728525984382
H         2.86670483381790    0.33407802263135    2.77618008839331
H         1.45758339737621    2.17989471653804    1.59589881425304
H        -1.34255118314743    3.36602936715855    1.59945649859578
H        -0.55682784554471    2.54603085466572    0.23689725264253
H        -0.31011727148933    5.01224754072123    0.09582134012501
H         1.25610572446647    4.22393670625901    0.26846323620234
H        -0.34591340016315    5.53228938440823    2.51504813283753
H         1.11368270471417    6.18347271516785    1.77073654341884
H         1.62041094280039    5.03992954263239    3.92668051433585
H         2.42472385009477    4.25383843187116    2.56795195814412
H        -0.17458254761721    3.35140506861625    3.88789118611248
H         1.39724894493723    2.56773640671279    4.05953290434957
F         3.72498953437213   -5.60770054559071    0.41950736472160
C         2.58724505576713   -4.88629291042233    0.46410966004554
C         2.58983071057956   -3.59443681236961   -0.03787329720702
C         1.42526257712445   -2.85427421167765    0.02010833605282
C         0.26685996670425   -3.41294151529100    0.56133276334300
N        -0.90881177035254   -2.65034076931751    0.59086892707211
C        -2.02711646604118   -3.17229553705014    0.19663946235891
C        -3.17674797975108   -2.32140790869247    0.18392209280274
C        -4.44236962625971   -2.75409390236408   -0.26019066946407
C        -5.47326090627664   -1.85902248030327   -0.30415171565988
C        -5.22870391608706   -0.50754832253383    0.02043058574796
C        -6.22204723508149    0.48613697003874   -0.07996440278641
C        -5.92623332389772    1.79806683630001    0.17668601529849
C        -4.61949743204924    2.16962613292645    0.53240239378064
C        -3.63860574401226    1.22504446520318    0.67000398946162
C        -3.91596686709309   -0.13462809503733    0.43809748801176
N        -2.93899237917933   -1.06245721713863    0.58030674634860
C         0.28599456035646   -4.71836923240474    1.05708434452145
C         1.45237477943656   -5.45777140889984    1.01623451409106
H         3.49099868201535   -3.18661349299492   -0.46661492549815
H         1.38724613246532   -1.85365758655606   -0.38050066253431
H        -2.08105388560632   -4.18582691268886   -0.18345517385460
H        -4.57278438951274   -3.78387327662464   -0.54945324302301
H        -6.46360882693769   -2.15966109156490   -0.60938451667854
H        -7.21525465590522    0.19266580419179   -0.38326600353972
H        -6.68945603317556    2.55539460924160    0.08952215559235
H        -4.39199870870669    3.21208546743054    0.69150765978083
H        -2.62338143412165    1.50011625076017    0.90493972598275
H        -0.60296995505624   -5.14248173319909    1.49693340693802
H         1.49217474277756   -6.46399432239560    1.40116350354866
Cl       -0.43267479127397    0.03490777936723   -0.84383479919894
