65
 energy: -121.350087173569 gnorm: 0.000547386721 xtb: 6.4.1 (afa7bdf)
Ir       -0.36713044802448   -1.15970969261872    1.47699883523112
C        -1.89293511404799    0.21340209110991    4.16344367692156
C        -0.62695671722664   -0.12632264636217    3.45945372189595
C         0.14679757356119   -1.30566656996479    3.69447709817832
C        -0.15393436837908   -2.31083974740239    4.74871930471524
C         1.35059586062561   -1.21171501279375    2.90858359364334
C         2.52896379525974   -2.12124522927617    2.98983216115256
C         1.35743659453969    0.06717152016430    2.25532537229185
C         2.51758943024681    0.65762508831021    1.54383652561694
C         0.10671138644242    0.71558464001094    2.54471984320909
C        -0.22374517841007    2.10556575544419    2.19107837531870
C        -0.53918478345482    3.01945406894954    3.19470441670922
C        -0.81310127089169    4.32909821194256    2.84678478407481
F        -1.11055207440361    5.20650577330488    3.82405969300705
C        -0.79418981160428    4.77308838960863    1.53622756960077
C        -0.47864920146231    3.84128441067028    0.56295509721370
F        -0.45348632857927    4.23337067677169   -0.72528137969594
C        -0.19181010694804    2.52231728633867    0.86101276415924
H        -2.40692896279423    1.04095182639231    3.68288077747325
H        -1.66222373801287    0.49937569397473    5.19045845788664
H        -2.55874938690272   -0.64536136068040    4.20839045323232
H         0.50075229806458   -3.17275983054338    4.67544153970456
H         0.00974421844151   -1.84516495224225    5.72163121642549
H        -1.19189198561466   -2.63214494613337    4.71228388172769
H         3.17383294520687   -1.79774689333370    3.80754757667710
H         2.22451638764948   -3.14637630023826    3.17974874921345
H         3.10174252809077   -2.08978082897721    2.06761914070921
H         2.75125324305853    0.09631208613266    0.64024619984991
H         2.31679232985714    1.68814012906458    1.26567725111607
H         3.39121178807823    0.62062257372546    2.19357364790697
H        -0.54582912598849    2.73365740081127    4.23325593010689
H        -1.01393761781064    5.79729156286747    1.28541367004080
H         0.03942624839411    1.83062065019488    0.06557992400671
C         3.51841227916738   -6.73131516367937   -1.33108742830982
O         2.54064217034516   -5.70486038146994   -1.31469880407364
C         1.87255908344020   -5.45267937357465   -0.17916940743561
C         2.05773417209660   -6.13181472556663    1.02599845967923
C         1.29178610880724   -5.76435430985147    2.11769900203864
F         1.47056423601367   -6.42755846937946    3.27832583078219
C         0.36276208012342   -4.74339601248457    2.08444333309126
C         0.18615165600563   -4.07439119446861    0.87419531299277
N        -0.74963257504887   -3.02454483456753    0.78566997722655
C        -1.75761394037347   -3.14584836337047   -0.02096536071689
C        -2.61579464084323   -2.00814352519224   -0.16570711561771
C        -3.72839114915305   -1.95262441582627   -1.01028893162720
C        -4.44537925723431   -0.77760478333369   -1.10118618281152
C        -4.02016970753129    0.31573073714270   -0.33923257525827
C        -4.76316292245428    1.62337335824981   -0.43236308386083
F        -6.07888183797376    1.46966373558010   -0.22171167757194
F        -4.33177520577988    2.52725447649741    0.45755302160204
F        -4.63481523200888    2.18314308164684   -1.64605867064769
C        -2.91197822028248    0.19547388900615    0.48261233790493
N        -2.22751630377773   -0.93882935985537    0.57714124630385
C         0.91869448153249   -4.43029222307279   -0.24753606840432
H         3.90945290019781   -6.74080151340653   -2.34612720444224
H         4.32875598156837   -6.51646389974851   -0.63026086134061
H         3.07523240042817   -7.70363432269838   -1.10274454608448
H         2.76935681040677   -6.93251115710811    1.13614109018858
H        -0.23309255216257   -4.50916286835318    2.94872766639935
H        -1.93370636172253   -4.06005237888097   -0.57547720000018
H        -4.00748079545172   -2.81923273575663   -1.58791787498637
H        -5.30888005726436   -0.69362640058391   -1.74313270244524
H        -2.56866940499854    1.03443644336869    1.07129249044144
H         0.79404547143486   -3.89808827779103   -1.17608696492406
Cl        0.43163092550935   -0.78729585671700   -0.72169397739297
