65
 energy: -121.178808577547 gnorm: 0.000433580446 xtb: 6.4.1 (afa7bdf)
Ir       -0.30239536757413   -0.97518814495744    1.28984385508981
C        -1.59273342004616    0.16848565806388    4.17180506860672
C        -0.38594231083032   -0.09526782604780    3.34176884303169
C         0.42512853451491   -1.27026377851005    3.40265001640979
C         0.22965775222150   -2.42616750754916    4.31854109210008
C         1.55525479709746   -1.07682842223345    2.53114541045372
C         2.76425564377716   -1.94488609885308    2.47220132648529
C         1.47757881136171    0.25144126867157    1.98464078906623
C         2.55058924825524    0.91677151771305    1.20508430477252
C         0.25248426462939    0.83974263830297    2.43755796410051
C        -0.14304607980317    2.23646212619482    2.20244101389611
C        -0.43744873742108    3.07604364531614    3.27484599094436
C        -0.77843316048524    4.39173826462759    3.02116710651790
F        -1.05549828466985    5.19760884220856    4.06450589804226
C        -0.84800923586748    4.91318666830443    1.74137967713401
C        -0.54994946047130    4.05493270472269    0.69737068192086
F        -0.60788361372117    4.52334574777531   -0.56336909994867
C        -0.19653018049092    2.73425141450790    0.89987074532967
H        -2.17590656384447    0.99247171345748    3.77020566105031
H        -1.28005487160611    0.42668979393394    5.18436904956281
H        -2.22328842390854   -0.71457185622316    4.24088332542683
H         0.53214612746983   -3.35777061526559    3.84619723440018
H         0.84996577802173   -2.28096392921939    5.20341957714685
H        -0.80446998389752   -2.50633905997499    4.63856014658137
H         3.47241819073188   -1.60938076688053    3.23089215600328
H         2.51311616757920   -2.98156591813861    2.67324354931446
H         3.24754970470210   -1.87661247535607    1.50236955241665
H         2.60914013854553    0.50645760465662    0.19729539300674
H         2.36593369916912    1.98469400851172    1.12804907715837
H         3.50957906362526    0.74564546261250    1.69056410036023
H        -0.37703111880386    2.73114510279678    4.29343596955399
H        -1.11914336485086    5.94047462874414    1.56529745975291
H         0.01972502713205    2.10140114136127    0.05260136015339
C         4.22920820321545   -6.00312368272374    0.06595663023811
O         3.31561588369908   -4.92366406890215   -0.03316942197748
C         2.10830156624731   -5.02699722034560    0.54223638080971
C         1.66386597186622   -6.13029041922535    1.27427490601764
C         0.38922897582418   -6.12103617703008    1.82123977528237
Cl       -0.14417567545629   -7.49499110795823    2.73862866177474
C        -0.46922757999067   -5.04895687808624    1.65261632179694
C        -0.01210506131997   -3.94380149551689    0.93117154725715
N        -0.84824790869201   -2.82889477539151    0.74867080367712
C        -2.02374265733260   -2.98359776652197    0.22128429364639
C        -2.82232769337567   -1.80439974413849    0.06836471196934
C        -4.04959270105216   -1.75149415396729   -0.59911728453575
C        -4.70468201638985   -0.54191195614485   -0.70787356256491
C        -4.10339924832180    0.58799951987828   -0.14504348027650
C        -4.79295280493838    1.92571314721040   -0.20941652408104
F        -5.36247002265382    2.14807900633313   -1.39992118638887
F        -3.95887190479555    2.94709434883596    0.02791533981891
F        -5.77528076301188    2.01984999927754    0.70660133755526
C        -2.88299262399070    0.46961044625182    0.50080385093559
N        -2.25737558277263   -0.69465228966287    0.60963296211446
C         1.26282674227754   -3.92338070382182    0.38825020129059
H         3.82445702037931   -6.90867843429251   -0.39181921119003
H         5.11274776174261   -5.68443784389449   -0.48251478736416
H         4.49748090884710   -6.19967557096482    1.10660168785284
H         2.29079531238239   -6.99268438651595    1.42295737613881
H        -1.45249243033388   -5.05436360337322    2.09091748431892
H        -2.37065746298273   -3.95087332871122   -0.12177945648638
H        -4.46501921466818   -2.64818663602504   -1.03008428375145
H        -5.65131362366786   -0.45929856554825   -1.21960951141372
H        -2.39869846795309    1.33649746605996    0.92894621252093
H         1.59681830148250   -3.07780635756406   -0.19063356979266
Cl        0.27155402513127   -0.56823632073084   -0.97224750107843
