60
 energy: -96.255939987253 gnorm: 0.000663718687 xtb: 6.4.1 (afa7bdf)
Ir       -0.33756594069182   -1.04499394272231    1.53024428990082
C        -1.43770842096260    1.19336378876358    3.99499154514469
C        -0.40281215692204    0.29964727617121    3.40964571216980
C        -0.26255077386032   -1.09492112240517    3.75879134885552
C        -1.12660793364497   -1.81475256645945    4.73626649997194
C         1.00698277116292   -1.55178331791458    3.26584859739955
C         1.67780182634457   -2.82086871017588    3.65980834824820
C         1.57534574740569   -0.49385951813388    2.49115622382320
C         2.94451405143393   -0.44800784812606    1.90761831100752
C         0.69748339095415    0.66055449307782    2.59130636417541
C         1.06961603092482    2.02207950722807    2.11336919017025
H        -1.25718051000679    1.26519157165882    5.06811450500219
H        -2.43948643993536    0.79398804540640    3.85646449967700
H        -1.39344305896007    2.18932805975430    3.56832122471230
H        -2.15792588923045   -1.48075520119816    4.66700255219946
H        -1.08925087451717   -2.88917271892697    4.57956133168965
H        -0.77214472179481   -1.60852624262350    5.74694712800314
H         0.95830533119800   -3.61134762836620    3.85263986798752
H         2.37527770274337   -3.16174460527434    2.90025897052694
H         2.23727246757748   -2.64054250102533    4.57869109064382
H         2.91457854897821   -0.06558455704649    0.88907713245017
H         3.40545917945691   -1.43101028810364    1.91170676737296
H         3.56272348015680    0.22832934311319    2.49810554809118
H         0.22195137118984    2.69885560490749    2.14873428171832
H         1.44221346525793    1.97885475260617    1.09267587973887
H         1.86280441354962    2.41960143856708    2.74683289139648
C         4.02220115926262   -3.32115928590558   -0.94389831595452
O         3.71480161356483   -4.52406143353914   -0.26018759185706
C         2.50329948739161   -4.65315241800506    0.30691080750427
C         1.51913651680591   -3.67167404703669    0.34292171297128
C         0.28062528869695   -3.93217240856449    0.93141265082328
N        -0.69190527220915   -2.92179992376532    0.89776229794972
C        -1.88930902800394   -3.20622124757755    0.48771685043610
C        -2.81540636421057   -2.12566533650575    0.36563392318490
C        -4.08516947822477   -2.26082227405301   -0.19937813823581
C        -4.86902226323637   -1.13578338284118   -0.33363806944046
C        -4.34742458256795    0.11139672489206    0.02821673438918
C        -5.22077034841278    1.21842253312437   -0.03101195956801
N        -5.99842459496151    2.06159190240389   -0.05636370831894
C        -3.02528214769885    0.19315489769809    0.51637513029607
S        -2.17797509263411    1.66915467551797    0.85849466906633
C        -2.87499299343754    2.91222889317734   -0.26779316552593
N        -2.32019523638383   -0.92471383266151    0.75098232284672
C         0.01380118099007   -5.16475265933665    1.52088541699522
C         0.99798175042508   -6.13901972281391    1.52336726310727
C         2.21131301850854   -5.88541806735361    0.92034388915495
F         3.15467925854259   -6.84860752894605    0.91568181724798
H         4.01796043270229   -2.46782312589244   -0.26264136141488
H         5.02369482484682   -3.46509151730769   -1.34248083088037
H         3.32208936674752   -3.14351846991064   -1.76335694857470
H         1.67237016184090   -2.70953075635525   -0.11944600882399
H        -2.15765594350304   -4.20360834837268    0.16097530211468
H        -4.43696436203860   -3.22964233791648   -0.51120922706692
H        -5.87686430918355   -1.19686895901755   -0.71436321062606
H        -2.08478340100422    3.64824885680656   -0.39114774472003
H        -3.10000996909055    2.45364058878564   -1.22522410130874
H        -3.75441847144108    3.38050698747357    0.16067358127631
H        -0.93540327354507   -5.35018541328087    1.99648665104781
H         0.83186333410948   -7.10048383734697    1.98155141043014
Cl        0.33571867952688   -0.43190083822133   -0.66597315069875
