68
 energy: -103.079464745213 gnorm: 0.000585071157 xtb: 6.4.1 (afa7bdf)
Ir       -0.65873516454744   -0.66251018021658    1.58510566761263
C        -1.86316879921638    1.24687230896994    4.27617544260732
C        -0.74628904320005    0.58693534592098    3.54560971217136
C        -0.45530608739322   -0.81676211561807    3.78042547347345
C        -1.19383985630315   -1.67769896022815    4.74952618616432
C         0.82231814999564   -1.10972973272556    3.21099525942032
C         1.65023809908103   -2.31219482311308    3.50163343816724
C         1.23001839235535    0.04576368040933    2.46995925743457
C         2.56750395983608    0.22467685761895    1.83650883534049
C         0.28355120364645    1.12768899693095    2.73401982297801
C         0.64989358662483    2.55524291629106    2.40711150504107
C         0.39290669955275    2.94674939427276    0.94443431586037
C         1.02861489241907    4.30089377077953    0.64579540155126
C         0.47565536766559    5.37474801383327    1.57854895357684
C         0.67659478434762    4.96968434127526    3.03628356487464
C         0.01520435608203    3.61936435170002    3.30560856146480
H        -2.75275085873894    0.62163142090302    4.26419694908973
H        -2.11625945359245    2.21895449191441    3.87717024681141
H        -1.56105514890710    1.36521105700117    5.31771568741693
H        -0.93605952101227   -2.72442502887398    4.61896712484414
H        -0.92705292717927   -1.38407960970585    5.76528918192595
H        -2.26937860387157   -1.56444501952048    4.64155312475019
H         1.03832418249217   -3.19615130998943    3.65645285150379
H         2.36477440632162   -2.51307611338378    2.70942112473362
H         2.20795130789730   -2.12212210422175    4.41980770541829
H         3.00642745867316   -0.73342243015279    1.57406120963713
H         2.50088207665831    0.83699924902195    0.94146063980033
H         3.23364897594188    0.72313434286320    2.54200081925097
H         1.73559131326628    2.61080547620055    2.56316559870114
H        -0.68137042750422    3.00726059147159    0.77167027545230
H         0.79552159548546    2.19396689890836    0.26839908785482
H         0.83316520031928    4.57461411118947   -0.39312427836175
H         2.11230793251640    4.23408216775420    0.77188735997591
H        -0.59125898652351    5.50686019428749    1.38430181123582
H         0.97057002044752    6.32855621086478    1.38410035323626
H         0.24372093143209    5.72670316556165    3.69300240602714
H         1.74544090692146    4.91168460577230    3.25599859508497
H        -1.04612708423084    3.71552002928317    3.07723039676331
H         0.13561006246318    3.35220485749681    4.35603775906369
C        -7.09400112562688    0.70295304886792   -0.18867030181760
O        -5.76017882192579    0.85883652877619    0.27423494967194
C        -4.95361471263168   -0.19405219292240    0.33069622161140
C        -5.25857556832791   -1.50624983225456   -0.04198460690265
C        -4.27209499358234   -2.46628261671675    0.04989211857450
C        -3.01101180317779   -2.12759932199479    0.54008943395308
C        -1.89504447267353   -3.01731145844169    0.52221634161847
N        -0.73524046208304   -2.55088202730405    0.85851140600641
C         0.39662582585396   -3.36911141635547    0.74100113546296
C         0.39580377647872   -4.67428252834554    1.23557017175024
C         1.51914531093066   -5.46700449300730    1.10017846151510
C         2.63841714356222   -4.96171440987299    0.45462375421143
Br        4.19434401292968   -6.06971401179272    0.26114543677318
C         2.65050952515753   -3.66725681066164   -0.04709761941276
C         1.53359037348323   -2.86893848316696    0.10587567728828
N        -2.72565937221619   -0.86761608338697    0.96709758980009
C        -3.65499171803339    0.05674912188781    0.82552716374232
Br       -3.27235336738534    1.83524443638770    1.26149810963352
H        -7.65254689744616    0.02094495617500    0.45546267843006
H        -7.53124789214406    1.69739578973638   -0.13698228755978
H        -7.11140549096834    0.34732120157626   -1.22093985204487
H        -6.23540442796647   -1.76141787787095   -0.41884816630491
H        -4.46280655536847   -3.47790386203995   -0.26915220162980
H        -2.01173340074984   -4.02613684764913    0.14240136551504
H        -0.47315418300694   -5.05933431513061    1.74633077415976
H         1.52609239695091   -6.47193723820944    1.49009009408366
H         3.52452909407375   -3.28903058377906   -0.55329200749802
H         1.51291588734037   -1.86658907724521   -0.29306190640113
Cl       -0.40502198168061    0.01750698402900   -0.70157636218698
