76
 energy: -127.653672912089 gnorm: 0.000224460632 xtb: 6.4.1 (afa7bdf)
Ir       -0.19545207092887   -0.40732365490477    1.92018587904165
C        -1.30473410586038    1.33244426654197    4.62808728811944
C        -0.16907541325226    0.73070728795333    3.87387982288538
C         0.37667322155804   -0.56972702728092    4.10816552249009
C         1.56144525664425   -0.70889143172743    3.29057114022956
C         2.56953405501756   -1.80479723686821    3.37639543077426
C         1.74301001112375    0.50106089286397    2.56511687130607
C         0.64027814536049    1.38555244203360    2.88268290920996
C         0.57098781450412    2.81143853708420    2.52486376360111
C         0.63609011558508    3.76982303080766    3.53558610617974
C         0.63607481360096    5.11468066370180    3.22368515707671
C         0.57133405041951    5.54260116986806    1.89838722271293
C         0.60903174978799    6.97554550513068    1.56840534539578
C         1.36570563983473    7.42927097401700    0.48949494340295
C         1.41903875514033    8.77650921930368    0.18318918910128
C         0.71119396732632    9.69252393043998    0.94444601851251
C        -0.04630707711642    9.25234334951916    2.01766233017895
C        -0.09429353058142    7.90611641716868    2.33052635598343
C         0.48821606878009    4.57988630544435    0.89356967658080
C         0.48839769355619    3.23315846097842    1.20026947857793
C         2.94253251324216    0.85774829856322    1.76443869677029
C        -0.04360346393955   -1.46395750698549    5.22274041121853
H        -0.99808755283310    1.49016903036270    5.66239881587786
H        -2.16887143473790    0.67193399558518    4.63960690319797
H        -1.58922225849476    2.29123673033136    4.20404270389595
H         3.39993823544703   -1.47460931062752    4.00110407647786
H         2.96782406792358   -2.04528070191346    2.39313934495797
H         2.14784836400326   -2.70268050083113    3.81610735707301
H         0.72036215385994    3.45833547973051    4.56543561168751
H         0.71661897969220    5.84470055525361    4.01496539901726
H         1.93492488231567    6.72405949395254   -0.09860025488601
H         2.01732694985419    9.11442738376565   -0.65068570091570
H         0.75185890804144   10.74471613768154    0.70339820225563
H        -0.60116478168742    9.96297450687529    2.61294424910843
H        -0.69700039136619    7.57285824419897    3.16252995565756
H         0.41201914444940    4.89046550948561   -0.13771731968700
H         0.41203460461295    2.49909168847490    0.41244614422138
H         3.19122413597051    0.07202075543887    1.05421523585591
H         2.78229254882437    1.78412681670558    1.22038685174709
H         3.79267797828015    0.98478343389558    2.43603967111809
H        -1.12278516603819   -1.45824176953695    5.34822560938055
H         0.30296199023488   -2.48239637188175    5.08114368904910
H         0.39714380425636   -1.08569777565584    6.14656307827653
C        -6.51183776235128    1.47203089179527   -0.65861600305257
O        -5.73568310971862    0.28186244429533   -0.70851999133404
C        -4.58007103126670    0.22268873339323   -0.06156064509258
C        -4.00673749809031    1.25887145407624    0.69481049652993
C        -2.79584162761120    1.05277083812497    1.31967859505165
N        -2.12659353430865   -0.09615975816107    1.25906408769678
C        -2.65521340787678   -1.10493750894946    0.51586813365143
C        -1.82626914764464   -2.27528099606506    0.45775411093792
N        -0.75377623382841   -2.27737471920441    1.18298662205623
C         0.17154782703198   -3.33241804769944    1.04802164453483
C         0.81023921682484   -3.53607389595340   -0.16969381687639
C         1.77652054320212   -4.52274109461738   -0.28609431855435
C         2.44473000911170   -4.74177939454914   -1.61054691722920
F         3.68036807703163   -5.25720752239171   -1.49907102571468
F         2.56841270591278   -3.61461861824122   -2.33267418349765
F         1.75472982954702   -5.60332926065284   -2.39418149574042
C         2.09528008554951   -5.33190051815514    0.80170498581007
C         1.44238220400796   -5.14903657843878    2.00216738335518
C         0.47003837401733   -4.15932149197377    2.14457804208749
O        -0.16053301544515   -4.04611543802081    3.31936390615151
C        -3.86637774527825   -0.98138238239818   -0.14321330687683
H        -5.96800877791940    2.31382670649387   -1.09188069241989
H        -6.80893515037609    1.70198384853149    0.36666612932690
H        -7.39641918294786    1.26434661043217   -1.25634896251754
H        -4.48834935319027    2.21673342919060    0.79588409395563
H        -2.34091667412154    1.84658189327009    1.89276529478967
H        -2.08140123050954   -3.10936524129021   -0.18623385499072
H         0.58134900832689   -2.88679094567941   -1.00039115224489
H         2.84857071727386   -6.09712040755452    0.70238017216799
H         1.66416980811931   -5.77339888997970    2.85205655181329
H        -0.88904128447794   -3.40787503527966    3.27773733852947
H        -4.26403707769133   -1.79447990554801   -0.72758809607742
Cl        0.38440806633906   -0.06701342392811   -0.36939230892675
