74
 energy: -128.199207886735 gnorm: 0.000184873063 xtb: 6.4.1 (afa7bdf)
Ir       -0.03697876581041   -0.99427786119663    1.64275233590811
C        -1.38736146223142    0.64074605740906    4.26787285888847
C        -0.17075689164068    0.26211198538849    3.49711634399168
C         0.67040490440586   -0.85603617450750    3.79632845837014
C         0.48996165288764   -1.74605406584175    4.97725535967851
C         1.80960453967633   -0.80501331574911    2.91482389330233
C         3.04229765191710   -1.64090960559656    3.00399521344638
C         1.69907281862501    0.37659456192316    2.11433041930269
C         2.76452091814906    0.91751336783844    1.23200642528839
C         0.44651384387136    1.01316048948041    2.43213746344717
C         0.03322083973528    2.33404013733362    1.93673779750903
C        -0.27190075171178    3.35509732706907    2.83499861228290
C        -0.61870708870503    4.59939244684183    2.34254172643035
F        -0.90594985337278    5.58313459429943    3.21823041195827
C        -0.68233673921832    4.87584160949388    0.98824473682070
C        -0.37387410076939    3.84082572915282    0.12203755714158
F        -0.42673544809310    4.07238786511870   -1.20456175227586
C        -0.01770258624718    2.58136715232513    0.56490207063617
H        -1.99921302963020    1.35282660862362    3.72133247497493
H        -1.08373326003662    1.09762716617992    5.21061170915622
H        -1.98476871631128   -0.23506107254158    4.50848049070884
H         1.23558094491785   -2.53384915515572    4.99484776767804
H         0.60460232754200   -1.14795418772225    5.88196257913936
H        -0.50474592576502   -2.18539806981940    5.00036738562707
H         3.75395850663912   -1.15538172868669    3.67262442958652
H         2.82611628209175   -2.63172610802903    3.39083681881419
H         3.50510613464077   -1.74334559109887    2.02628063944408
H         2.82308425652249    0.35128649507290    0.30282283349324
H         2.56499982605842    1.95585865169844    0.98196314822642
H         3.72721283192668    0.84137109020528    1.73388527673114
H        -0.21437020559730    3.20329169989860    3.89975859338293
H        -0.95451616860970    5.85248520359438    0.62453942235509
H         0.20194624404374    1.80102984416300   -0.14762167030481
C        -7.69425247517285   -2.66332398951045   -1.27388693424850
O        -6.37401184641436   -2.46590549262672   -0.76511475838144
C        -5.95582653639358   -1.22012126469914   -0.59806401563442
O        -6.60340820481985   -0.22959944706609   -0.83984112725334
C        -4.56433929480554   -1.17160297603993   -0.04384601352598
C        -4.03036676341972    0.06241483958777    0.33700318456854
C        -2.75145060542531    0.11331302706146    0.85521982730856
N        -2.00048470880619   -0.97530100945374    1.01305243872476
C        -2.49854370904750   -2.17515781031680    0.62486532774424
C        -1.56838959868735   -3.26027033261560    0.76754886558387
N        -0.41112373703152   -2.97264156497665    1.26671608782969
C         0.61834305305963   -3.92795136818460    1.24681556327982
C         1.14123495905898   -4.42093080748385    2.44294675210442
C         2.18207485838035   -5.31856102580451    2.43601659902257
C         2.76825255165935   -5.72166678114770    1.22717623265471
O         3.79644477525334   -6.57914520861824    1.32635894754554
C         4.43582285015409   -7.03921766358298    0.14867465281812
C         2.25432769985337   -5.22285096929172    0.03095314255574
C         1.16971332641817   -4.35378531454940    0.03005797334456
C         0.62693332155001   -3.88746322722875   -1.28035557088325
O        -0.55369167692802   -3.74807137217132   -1.52248527660960
O         1.59297401266535   -3.70740683873172   -2.17002853088404
C         1.20268532271494   -3.25598531782195   -3.46428447942316
C        -3.78082750948650   -2.30748290504464    0.09563276282717
H        -8.36502942563414   -1.89285277066945   -0.89147706690607
H        -8.00327263383402   -3.65036363327371   -0.94042030789525
H        -7.67830334190829   -2.61794649046056   -2.36367056264609
H        -4.62208550735535    0.95680959927172    0.22392152587569
H        -2.31311277132295    1.05660770835741    1.14740685753001
H        -1.83077221600730   -4.26427906940529    0.46140332222201
H         0.68500542292908   -4.11870254982533    3.37126322291770
H         2.57248188173594   -5.72902457187145    3.35303916724352
H         5.22399009230079   -7.70693802041980    0.48986314598976
H         3.74091568287172   -7.59203804151624   -0.48855979185810
H         4.87571461460249   -6.21084355799501   -0.41198914944617
H         2.67346609856516   -5.51167611159096   -0.91822165755084
H         2.11038871860010   -3.23123991783281   -4.06029714015706
H         0.46801762128399   -3.93695171858957   -3.89736992317915
H         0.76427111239347   -2.25894415918333   -3.39031008970775
H        -4.14502459368378   -3.27513865763949   -0.20813894992459
Cl        0.54968665045654   -0.89938736409127   -0.65129808466756
