78
 energy: -106.442943992727 gnorm: 0.000251549176 xtb: 6.4.1 (afa7bdf)
Ir       -0.45095043748884   -0.55517352353305    1.86441738872787
C        -2.34577268898904    1.56643187656918    3.95711233060208
C        -1.13001997467257    0.75550060648166    3.65571301539179
C        -1.04923186590980   -0.64576465252443    4.01893318553400
C        -2.14488964650036   -1.41210043044671    4.67799271491009
C         0.31762762256280   -1.04855137065134    3.94469612972487
C         0.86539191582225   -2.29638150376687    4.54758655059402
C         1.05239678559234    0.03082490110720    3.35612609695291
C         2.53665545200906    0.09614567525546    3.20166080224038
C         0.15688263752186    1.17932247238229    3.24574081804369
C         0.67295051124000    2.57300570652087    3.01431470198366
C        -0.07871927788527    3.41750546776651    1.98070457653774
C         0.62591677492136    4.76101002373673    1.80784164157357
C         0.69254437627267    5.50857092360953    3.13739537845427
C         1.41013534915062    4.66542933069778    4.18793240496421
C         0.71817073877625    3.31650187917964    4.36122157289036
H        -3.24311660338910    1.10085828998572    3.55457200358030
H        -2.27471115610971    2.57651020754508    3.57197610445700
H        -2.45781031173826    1.61829994474131    5.04110710310859
H        -1.97773855309700   -2.48235749134011    4.59915233054415
H        -2.17869645988600   -1.15042324694299    5.73641709203290
H        -3.11081031345837   -1.17103151660619    4.24233405283314
H         0.82437488002105   -2.19080252592845    5.63269881573388
H         0.27585016853670   -3.17017935334918    4.28054802828533
H         1.90265314459294   -2.45961315547219    4.27135446831930
H         2.97385604532909   -0.89758769392296    3.18317592699094
H         2.80621234241161    0.60414135592519    2.27882175135814
H         2.97009694205275    0.64737817658335    4.03637801009743
H         1.70117837683282    2.48425576344713    2.65159641258068
H        -1.10407464347079    3.60622531879918    2.29963673319579
H        -0.09815089544876    2.88995575960111    1.02624253959104
H         0.09286655840383    5.36299951201887    1.06904222743363
H         1.63818559263143    4.59766608267629    1.43116985064847
H        -0.32005257028520    5.73387549946754    3.48104079224352
H         1.21499701851646    6.45807963099071    3.00407989882667
H         1.42499040728083    5.19425148806500    5.14315679057372
H         2.44600896306945    4.50908928005335    3.87801882884461
H        -0.29600494250313    3.47413389066641    4.72994959067187
H         1.25498060772645    2.71653360102471    5.09855212678620
C         2.03872041396346   -1.90139164409880   -2.34398366876778
C         1.75221966492574   -2.98698021716833   -1.31081805620656
C         2.16666124526033   -2.59070146301152    0.11359911011282
C         3.53070833561046   -3.16561978087538    0.52091683790031
C         4.68596238640522   -2.69201380298286   -0.35344499791353
C         1.12798138824962   -3.09343886593288    1.14971705724563
N        -0.11287623566442   -2.37453996716502    1.05987221108404
C        -1.09875462786396   -2.91395698870659    0.42330648908184
C        -2.27327388561141   -2.12312162126251    0.20462445508624
C        -3.38477937983174   -2.59029938167306   -0.52537196805775
C        -4.44514171770363   -1.75535238989601   -0.73162569723261
C        -4.37180314446467   -0.42107920593243   -0.27205114390240
C        -5.40054704669061    0.50927302701936   -0.50804566146425
C        -5.25960842500539    1.81031376147395   -0.09772810875689
Cl       -6.52119136992414    2.96025193203403   -0.38942964514827
C        -4.08231738222084    2.23764958428707    0.54190961832495
C        -3.08194344519405    1.34391061212243    0.80423716872171
C        -3.20255529989470   -0.00917085771024    0.43255411212312
N        -2.21147346160014   -0.88656487304500    0.71587765109303
H         1.70257617431110   -2.22183384117266   -3.32799666840442
H         1.50910622813744   -0.98880415592471   -2.08178154955391
H         3.09835825540274   -1.67418029099850   -2.40418519062665
H         0.67660808367374   -3.17500609304090   -1.33946155696010
H         2.25398536651792   -3.91403484753116   -1.59533896663613
H         2.20397942305195   -1.50024274295164    0.17868666477823
H         3.48484791763161   -4.25673954300086    0.49066309371575
H         3.74313825816416   -2.87287674578853    1.55144227460910
H         5.62852081165287   -3.04350724673582    0.06094073902102
H         4.60156362121448   -3.07964506288995   -1.36452039258238
H         4.71542965220053   -1.60602147908579   -0.39654825241763
H         1.54534119756386   -2.94768985295151    2.14425915681324
H         0.95835496582953   -4.16240382167582    0.98665679318258
H        -1.04758308969321   -3.92733613614678    0.03982067840503
H        -3.37948277770470   -3.60045770931564   -0.90055218171734
H        -5.32582880898614   -2.08658826927554   -1.25941550164867
H        -6.28891548018883    0.18918313286914   -1.02863730822207
H        -3.98015748885468    3.27524083214173    0.81457741036998
H        -2.15831835043249    1.66726083383281    1.25555794524599
Cl        0.38881415713217    0.48964098140504   -0.08643773847483
