82
 energy: -118.041727457710 gnorm: 0.000582705734 xtb: 6.4.1 (afa7bdf)
Ir       -0.31043214012620   -0.65161000820432    2.24527100600356
C        -2.21772051616586    1.18034428546814    4.46838792224480
C        -0.93465335002713    0.52907540943244    4.08238749386181
C        -0.53343770797447   -0.80012243503300    4.47552874365078
C         0.86522961268893   -0.94402720297021    4.18287138022602
C         1.74144570567611   -2.04013238277255    4.68167853985500
C         1.29781356979045    0.23200990907106    3.50289351998516
C         0.17897549710399    1.16251999324463    3.46756094755018
C         0.25758669804439    2.57394679697159    3.06713832848141
C         1.19648039456927    3.40656777082861    3.67360205015302
C         1.26919144807239    4.74257001983320    3.33469872678199
C         0.42225060944158    5.28263475690731    2.36876565177647
C         0.51513866451960    6.70284377062103    1.99804312747957
C         0.45799703766153    7.09231613249317    0.66157415071717
C         0.55345475671361    8.42725072262754    0.31356794816117
C         0.69749787723953    9.39453972544507    1.29492916143182
C         0.75083042184463    9.01826675075577    2.62723330886508
C         0.66486593682323    7.68313433423071    2.97670909127118
C        -0.51083422993337    4.44503052720302    1.76058907007440
C        -0.59898657419973    3.11286195781942    2.11065521356091
C         2.70386769276662    0.56153644550898    3.13035643059267
C        -1.34118815817643   -1.72174221290710    5.32402645242595
H        -2.18133581038368    1.40319857820620    5.53578867625707
H        -3.07070442038578    0.52638603039728    4.30097982013542
H        -2.35670873152428    2.11700425342265    3.93483363996184
H         2.64642801105578   -2.13055590552249    4.08740351598731
H         1.21938846537396   -2.99310972755725    4.71028515189640
H         2.03958348867246   -1.79747546143305    5.70294499381678
H         1.85843924450797    3.00940263577024    4.42738400335747
H         2.00816192440648    5.37297293050134    3.80635964975017
H         0.36109866972802    6.34208223107724   -0.10983076622639
H         0.51670249382808    8.71534889640969   -0.72718031417896
H         0.76836633917440   10.43743637044252    1.02271586433788
H         0.85915879566046    9.76949228919023    3.39613978536455
H         0.69267359547388    7.39827170432999    4.01855692665889
H        -1.18045579318611    4.84737129651650    1.01505202474217
H        -1.30846746854475    2.47389910400532    1.60647797943799
H         3.21618281976687   -0.30629881365180    2.72200174770605
H         2.72467262401698    1.36011595292234    2.39329816813294
H         3.25091655629537    0.88895882661803    4.01496404933890
H        -2.40280602184086   -1.61035293899257    5.12418105961923
H        -1.05843816717853   -2.75800767406414    5.16234189769255
H        -1.16705876921501   -1.48392738342145    6.37412039148154
C         2.04889183169453   -4.01856297051308   -1.65210257239064
C         1.98810371443256   -2.63044513457442   -1.02367843981834
C         2.29965515437514   -2.53205107452749    0.47603926817776
C         3.69127805387166   -3.06149003326270    0.86852125997560
C         3.79272251919147   -4.55062917805450    1.19150357109405
C         1.19708904243858   -3.18477777964941    1.34131949840860
N        -0.02033083782473   -2.42169338741328    1.29256464852566
C        -0.95502857967368   -2.78926800417306    0.48205421457779
C        -2.13267273835413   -1.97249597854877    0.41712878603388
C        -3.20232203404213   -2.19540822930201   -0.44685354070327
C        -4.27753337192820   -1.31929715307863   -0.42992189193424
C        -5.42958518443228   -1.56705491845176   -1.35210862388261
O        -5.47682615491967   -2.50116330377881   -2.11697480741563
O        -6.37812007767732   -0.64938594102867   -1.22074710682492
C        -7.53506440313148   -0.78834342016409   -2.04526522117261
C        -4.24250139394441   -0.23518894836476    0.45070940792196
C        -3.14466116907719   -0.07963249003779    1.27480781867798
N        -2.11541097768649   -0.92415819681591    1.27715648781358
H         1.43035252218992   -4.73746236730961   -1.12083071855577
H         1.69176739192250   -3.96506383562835   -2.67842126773533
H         3.06940063731315   -4.38949873117353   -1.67833982885362
H         2.69494532646412   -1.98485121015587   -1.54871684645600
H         0.99747252746453   -2.19970785450359   -1.19016693871746
H         2.28360106557791   -1.46000862910024    0.70263472184308
H         4.37656001494414   -2.82736750723755    0.05260334405975
H         4.04129946577771   -2.50826358125304    1.74324182850193
H         3.43453162268143   -5.16848843506971    0.37624216814881
H         4.83530291114406   -4.80477829609365    1.36871668633987
H         3.23458783006348   -4.80215058349153    2.08858945758324
H         1.54279587657757   -3.21394631628633    2.37364824128509
H         1.01528966886725   -4.20311760677000    0.99152238510373
H        -0.87021861067316   -3.67936291698989   -0.13112611872994
H        -3.20035134800064   -3.03080451498782   -1.12945033704270
H        -8.17998826008846    0.04965956420497   -1.79712721950723
H        -8.03287279060885   -1.73669635485792   -1.83727513592517
H        -7.25229835619471   -0.76140291204404   -3.09868659437936
H        -5.05831674388726    0.46707903260390    0.48801365880271
H        -3.09475310806884    0.75243479679081    1.96093414382303
Cl        0.30652087036068    0.41073513945913    0.20086208275969
