84
 energy: -132.421926476850 gnorm: 0.000788734763 xtb: 6.4.1 (afa7bdf)
Ir       -0.62890295393935   -0.38801102941505    1.51865074269470
C        -2.08887311024303    1.18053664141856    4.15751210763850
C        -0.86548579412907    0.59106403516696    3.54812378454399
C        -0.47085926385920   -0.77688717253391    3.70059575395509
C         0.84376465039383   -0.92549551080061    3.12816655059529
C         1.74254969407253   -2.10026399496946    3.30260320412691
C         1.22672884029322    0.32652951648582    2.56794855536604
C         0.15822424308525    1.27860324033814    2.81329882788757
C         0.32177133382636    2.72761100891511    2.66531595018470
C         0.05584412958065    3.57358764779561    3.74209564926190
C         0.32344882409632    4.92366865341449    3.65545471745459
C         0.86889416563622    5.47611195400965    2.49699255720174
C         1.19062702767460    6.90754847693986    2.42844551266849
C         2.31991491791036    7.35145331273671    1.74224944259279
C         2.63150122797752    8.69714363807647    1.68867136189386
C         1.82048813261168    9.62678430105252    2.31890390821685
C         0.69601653060662    9.19864130575372    3.00529754601593
C         0.38422061148530    7.85196887122901    3.06118595113719
C         1.11984324708056    4.62920337683265    1.41857621293023
C         0.85022511352014    3.27818870939284    1.49846352533812
C         2.57605090935384    0.64472018930467    2.02385058070456
C        -1.17398687651212   -1.78878965376645    4.53996524840898
H        -1.94725143300834    1.24937181436439    5.23697286118516
H        -2.95828963310138    0.54969977585585    3.98261482065847
H        -2.27786718698430    2.17323578617598    3.76183156073281
H         2.32937962034881   -1.95576427440881    4.21083765752308
H         2.42813819440063   -2.19905566841404    2.46577748184482
H         1.18049036123858   -3.02368037310029    3.40739316027711
H        -0.31400840319040    3.16792946070043    4.67000794103113
H         0.14247992314127    5.55378048666639    4.51313877108513
H         2.97074315710394    6.63606583041437    1.26223612630474
H         3.51181140499553    9.02323402525460    1.15377837895028
H         2.06245191489322   10.67852596987677    2.27463171490950
H         0.05721336098145    9.91929272034534    3.49543014200191
H        -0.50818945073979    7.53352910507184    3.58033213262462
H         1.50908032228774    5.04136851495349    0.50040598975480
H         1.03406908680337    2.64253150660539    0.64635481234618
H         2.63116846026642    0.42460516743449    0.95796874105509
H         2.79223838656346    1.70254567843494    2.15555072291325
H         3.33342705691618    0.05315194514253    2.53317720011133
H        -2.25145232261989   -1.65352440726614    4.50071081457062
H        -0.92871525332228   -2.79945494061590    4.22505045227778
H        -0.85695753054657   -1.67285932546419    5.57697621877031
C        -2.32554040245924    8.56720711922448    1.01411718361190
O        -2.52207705415407    7.17190029578753    1.21974715867683
C        -1.78249101708668    6.34540260095219    0.47559636540626
O        -0.95199692507195    6.72609483446825   -0.31902546796061
C        -2.13154289780132    4.91851490010084    0.69417890402354
C        -3.05355726020420    4.52087041231029    1.66004711046888
C        -3.43717244444127    3.19726458447172    1.74273046468375
C        -2.87718558278591    2.24278991063504    0.89105122049275
C        -3.42557778860821    0.87851736166246    0.81599323843092
C        -4.80510396532223    0.76104699766955    0.61555386134381
C        -5.37075682653908   -0.46893562381824    0.33260860333588
C        -4.53525143475820   -1.56862628774935    0.23706904364882
C        -3.17997113033948   -1.40427224763109    0.50789125526008
C        -2.24917664760619   -2.49460723894388    0.46451735924847
N        -1.03051823010420   -2.26382188973111    0.82346935218216
C        -0.09620164331156   -3.30690551383676    0.81481718462638
C         1.16232404330445   -3.11132585823072    0.24575980805700
C         2.07694531090214   -4.14550963444579    0.21289581844296
C         1.74488058211862   -5.37087373351411    0.77411469349018
Br        3.01831087386032   -6.80729599166237    0.74052200498694
C         0.50630545849716   -5.57231242226415    1.36671791743298
C        -0.41604339282065   -4.54444228502239    1.37835869189677
N        -2.63365957800972   -0.20090882166595    0.82642166153708
C        -1.92501336770667    2.63694676229067   -0.04602966114839
C        -1.56324878058247    3.96559561476597   -0.14603589897067
H        -2.60526662504348    8.83923588417865   -0.00535381359399
H        -2.96565050858700    9.06915544837657    1.73401141817171
H        -1.27780288821903    8.82802670113001    1.17509914786266
H        -3.48527174419239    5.25697463730722    2.31856729823556
H        -4.18332038732476    2.90284434064743    2.46548581738960
H        -5.40863672012488    1.65358521720081    0.65064354097376
H        -6.43218495551045   -0.56241123092708    0.16699966816792
H        -4.91348416596302   -2.54277316116271   -0.02702798637271
H        -2.56323305019163   -3.46753630611936    0.10299806329447
H         1.39713761486323   -2.15637048306908   -0.19775468573888
H         3.04287736709931   -4.00263731422169   -0.24456044681160
H         0.26627674253521   -6.52457258343330    1.81144783821909
H        -1.37562345264725   -4.69143060884740    1.84984732452229
H        -1.50581032001765    1.91191331996356   -0.72351767575528
H        -0.85946754952557    4.29101391081229   -0.89591838821027
Cl        0.22655310695387    0.07788906693424   -0.65580938527156
