87
 energy: -130.213785085761 gnorm: 0.000181274332 xtb: 6.4.1 (afa7bdf)
Ir       -0.99740262150271   -0.72975706486183    1.26086354476681
C        -2.43017872654854    1.17557556579103    3.74229655570782
C        -1.28308572944282    0.35748421410111    3.25874529729159
C        -1.16135128474566   -1.06474723651562    3.45861014785136
C         0.16187788528299   -1.44774393128451    3.07986600782787
C         0.81826584939914   -2.74423668752798    3.39424916092301
C         0.79962748619482   -0.31367417114306    2.48873676757838
C        -0.08658906439476    0.82882419223537    2.64997660695061
C         0.31532600546476    2.23501398707100    2.48899812005035
C         0.25935475124162    3.08377932226849    3.59397815089381
C         0.66345929893197    4.39910079277464    3.48750134644436
C         1.13509481969659    4.90744418152488    2.27813669963796
C         1.56507858095531    6.30953452150854    2.17156800258515
C         2.69792580859100    6.65169780128867    1.43559523446678
C         3.10665249478090    7.96957259868462    1.34451499968437
C         2.38805804807003    8.96837817602550    1.98141988688008
C         1.25804034843629    8.64011045620526    2.71264369723582
C         0.85129236753209    7.32220271262366    2.80983102444957
C         1.19030457264965    4.05365526394109    1.17722270203956
C         0.78840402763930    2.73645862277659    1.27847832762679
C         2.23374078669012   -0.23705108047912    2.09376308691127
C        -2.14206134589931   -1.90742117909639    4.20244044901082
H        -2.48908709495734    1.09596851656506    4.82812624565922
H        -3.37352715271698    0.81469892476966    3.33601476146729
H        -2.29779409370653    2.21914461678723    3.47417805041244
H         1.32576489553411   -2.64541904902449    4.35506614887084
H         1.56358477977828   -3.01143595905207    2.64933442540218
H         0.09402693422718   -3.54935621199880    3.48206407007948
H        -0.07490732477400    2.70241971261588    4.54679663470216
H         0.63642233230700    5.03601220997546    4.35882812663010
H         3.27462856878796    5.87819564803645    0.94980687708466
H         3.99123869141703    8.21974169320556    0.77672466068234
H         2.70782048267398    9.99762730992465    1.90909211795479
H         0.69257682468770    9.41545241955410    3.20918956361798
H        -0.03893946536213    7.07834769956927    3.37082396126955
H         1.53306297960230    4.43281338226426    0.22645462250590
H         0.81065438426953    2.09857276794059    0.40771522874512
H         2.58166130920798   -1.19148243224595    1.70692764020540
H         2.38953698740379    0.53267306462152    1.34351580142875
H         2.83253938610334    0.01608888677515    2.96962023180269
H        -3.15801366576832   -1.55786053442194    4.03830748679848
H        -2.07720497152783   -2.94970763037302    3.89891482743110
H        -1.93254344514053   -1.85427324661991    5.27155675731520
C         3.37782551614382   -2.40923676386455   -1.66654331180730
O         3.25704502686088   -3.67229725154111   -1.03387133092240
C         2.11281962101638   -3.97038482626297   -0.39084993805138
C         2.03771332103066   -5.24659696778834    0.18495489916175
C         0.90818724994728   -5.63871934620631    0.87086411780467
C        -0.16470797833307   -4.77195145488574    0.97382739831224
F        -1.25435959548708   -5.15555595808423    1.68685718383380
C        -0.12207457223758   -3.49572766032510    0.41065543670004
N        -1.18821927180494   -2.59371541780641    0.51375613777521
C        -2.40579445997119   -2.98408082637698    0.34890055383500
C        -3.46122833620991   -2.01188484361891    0.37684809060206
C        -4.77616157935816   -2.41449660199927    0.23676202688745
C        -5.76301591641579   -1.42809629682364    0.22597563509850
C        -5.36861986308708   -0.12242896861080    0.17370461760654
C        -3.98626881828228    0.24319907253852    0.16842957778736
N        -3.67786885988402    1.51126151584709   -0.13200481296675
C        -2.44462680771275    2.19527439885104    0.18075716443957
C        -2.75552573776595    3.51632272545201    0.88850157156255
C        -3.64576459708365    4.40188795413907    0.02291551173561
C        -4.91220775506125    3.63036506817841   -0.33773118359528
C        -4.51547490996381    2.31837860681236   -1.00858690962377
N        -3.06109978673041   -0.70778068713588    0.45301871503410
C         1.03488444075040   -3.10056721998153   -0.26052396807161
H         4.36085603810175   -2.41252950830790   -2.13215082913336
H         2.60937700437583   -2.27462446604110   -2.43122946921884
H         3.31785092327620   -1.59463850723691   -0.94106006636931
H         2.88106791217160   -5.90902363191322    0.08361277019313
H         0.84315971656246   -6.61209923611772    1.32937048534044
H        -2.65182809234052   -4.01089900773786    0.10149789989556
H        -5.01921544098613   -3.46121186688913    0.17874416910485
H        -6.80839076654877   -1.69137245411739    0.24526361452420
H        -6.10606834798645    0.66178024565421    0.18026898415431
H        -1.88619443095066    2.38899175293815   -0.74016077350253
H        -1.83218682940312    1.56179803018635    0.81899839793050
H        -1.81644254992052    4.02028752996416    1.11681847144023
H        -3.27412673215922    3.31100486287269    1.82588463892933
H        -3.11451128812924    4.68159483403960   -0.88878273495112
H        -3.89698611074097    5.31835338699326    0.55768420810222
H        -5.49178214198072    3.42773552824792    0.56459796690516
H        -5.53455558181792    4.21074363114957   -1.01906379707223
H        -3.91193455581812    2.54810115883583   -1.89512843399855
H        -5.38596867388793    1.75946993880414   -1.34362204369732
H         1.04798503491504   -2.11232276301486   -0.69095676104562
Cl       -0.25624711818641   -0.03744255551215   -0.89691293754417
