57
 energy: -95.147359603979 gnorm: 0.000570125478 xtb: 6.4.1 (afa7bdf)
Ir       -0.86210669117489   -1.06712491591202    1.28143850929317
C        -2.01209620511997    1.08404578953333    3.83529513007572
C        -0.94182497920098    0.31398995194485    3.14976708896589
C        -0.58841151419765   -1.04015732776935    3.50020476045155
C        -1.24307988656664   -1.83525541911493    4.57720685893682
C         0.67630120703097   -1.34288426388610    2.88688953540415
C         1.54704131069745   -2.49520359942317    3.24659801207667
C         1.02585692902821   -0.23977217731944    2.04602924812671
C         2.31518338645340   -0.03570130174871    1.33116691027037
C         0.01586513146409    0.79167095310036    2.21565960706028
C         0.15236460041963    2.17417853353920    1.68009663327324
H        -1.72684291909611    1.19888081549613    4.88173110130116
H        -2.96483538267877    0.56082326736648    3.81055215894882
H        -2.13985043728560    2.06943077201254    3.40099732462729
H        -2.31273780288205   -1.64905713054791    4.60650515420536
H        -1.06886188535713   -2.89914648437441    4.44484695454244
H        -0.82335871038690   -1.54248575108471    5.54048853306389
H         0.96580316771885   -3.38490347189760    3.47244586402631
H         2.25743539561241   -2.72535312624604    2.45818861119334
H         2.11038226180708   -2.22583169114298    4.14107879628976
H         2.14533368223127    0.40166836115194    0.35000138255683
H         2.85775401550643   -0.96870567024146    1.21381197694236
H         2.93278658631309    0.65673986074157    1.90378146113531
H        -0.76287702877463    2.74368264143742    1.80544477296506
H         0.40427274510048    2.15042961265341    0.62234320336560
H         0.95997107080026    2.68319999335601    2.20626343615926
C        -7.12587163040248    0.43872172607327   -0.86497522443647
O        -5.81428039685557    0.56037865524349   -0.33257745484326
C        -5.05780488401084   -0.51833590637659   -0.18500023948047
C        -5.39961370806594   -1.83398112811969   -0.51542499697554
C        -4.46177220795058   -2.82725455827345   -0.32980493122323
C        -3.21277304912765   -2.51806875755403    0.21047487350403
C        -2.13778887527434   -3.45086298124991    0.28792789463976
N        -0.98159135310788   -3.01093786007517    0.67482758104931
C         0.12756382141812   -3.86335669530115    0.65547546395552
C         1.28159455598446   -3.45154386000043   -0.01654705915609
C         2.38032817748610   -4.28261456398780   -0.06772989608065
C         2.33287785808005   -5.52070674141036    0.57023028934284
N         3.47687079302425   -6.38497210908275    0.52066304639926
O         4.46492525667270   -5.99278603873552   -0.07257016805288
O         3.39937477676759   -7.46777085993538    1.07167796583929
C         1.19219761253259   -5.93366326451946    1.25346893837137
C         0.08785202361585   -5.10738956981757    1.29125765087471
N        -2.89457875647366   -1.25034454554202    0.59825355956519
C        -3.77658502697613   -0.29614420423316    0.36702679020371
Br       -3.34227029963688    1.48584975426673    0.74242350694236
H        -7.74739079952750   -0.19603491861651   -0.23022490153946
H        -7.09943648288916    0.04527636803441   -1.88329236670645
H        -7.52454144208009    1.45062807895918   -0.87385765923033
H        -6.36602813457457   -2.06620929239478   -0.93191262061532
H        -4.67899074432049   -3.84424522570892   -0.61333911123881
H        -2.27097113716042   -4.46926878053608   -0.05978357255030
H         1.28489808164699   -2.49293964874601   -0.51229364825580
H         3.27667739804957   -3.99396525320803   -0.59439073131064
H         1.18887332441491   -6.89647499525498    1.74060091575776
H        -0.79918286172379   -5.41188870981024    1.82461903303282
Cl       -0.47906593700570   -0.44105233570875   -0.99456295304451
