74
 energy: -102.591320740748 gnorm: 0.000534716544 xtb: 6.4.1 (afa7bdf)
Ir       -0.59197774832899   -0.84784738124796    1.86471870111698
C        -2.59473757915949    1.37853386917967    3.67580585221043
C        -1.36773492102444    0.55253010501155    3.50575797302180
C        -1.29894242184292   -0.82030400351966    3.97210510441840
C        -2.42714088760760   -1.56704531626743    4.60000243926708
C         0.06787415412760   -1.21103703486458    4.01842208448877
C         0.56363312868735   -2.42221741015229    4.73417555926425
C         0.83794090015952   -0.15566931435125    3.41593881572374
C         2.32636556926905   -0.02892665996011    3.43586269824719
C        -0.05902295732440    0.96478130714114    3.15690046952074
C         0.45145504125892    2.34623323765168    2.85370218277736
C        -0.19141669909314    3.04849047473709    1.65480320607404
C         0.50173125766968    4.38598567279666    1.41284830024586
C         0.39474470328864    5.27527179744007    2.64919710056212
C         0.99641021683522    4.57578898312758    3.86524930019329
C         0.31662980172132    3.23070663799134    4.10531344101337
H        -3.48642448294559    0.83869805207950    3.36526551751442
H        -2.54231683452456    2.31079154538535    3.12647749998020
H        -2.70265539285558    1.60495821252568    4.73806724064993
H        -2.24876977190220   -2.63845641907737    4.57138174543782
H        -2.52142841872502   -1.26460950801116    5.64395434765296
H        -3.36993299491071   -1.35051668384626    4.10440728866039
H         0.24219825193541   -2.35846562868887    5.77400946348424
H         0.14980731620596   -3.33828802557247    4.31793000891138
H         1.64713944143752   -2.48359290473033    4.71962565820451
H         2.80701484413552   -0.97335562383973    3.66660844775890
H         2.70241421255704    0.32304458011326    2.47829557293568
H         2.61031577793658    0.69651865308877    4.19883469144268
H         1.51748691740822    2.25702067157903    2.62505865059723
H        -1.25099644554440    3.23241372515872    1.82975884631042
H        -0.09792257133613    2.41643140044145    0.77181369109374
H         0.04523438600535    4.88437582355300    0.55564424936984
H         1.55474159711233    4.21720477270049    1.17515662911745
H        -0.65647599813412    5.50224274088721    2.84195981889707
H         0.91114843759395    6.22137649820566    2.47360333303136
H         0.88308140595692    5.20586537681779    4.74999260666991
H         2.06563173265669    4.42274713234807    3.70077430785011
H        -0.73723145169946    3.39621941267596    4.32808253571260
H         0.77077265160396    2.73340909887209    4.96484236982091
C        -6.89273085505918   -0.40697328033594   -0.70227168167829
O        -5.58814782287179   -0.02690101831955   -0.28816819374479
C        -4.71157780207433   -0.95965171195388    0.06566410134196
C        -4.91978334850685   -2.34099611051273    0.08051469292976
C        -3.86612007467320   -3.17116843903892    0.41194235971219
C        -2.63937895575140   -2.62190761101519    0.77529860289700
C        -1.43184683525640   -3.38132039881393    0.91515846080097
N        -0.32402457478857   -2.76926016346352    1.15897002502670
C         0.90110587980024   -3.49761787701258    0.87307353699947
C         1.05849899956668   -3.55540252498439   -0.65908511495305
C         2.32363524110217   -4.31620807383121   -1.03994651360696
C         3.55141330309923   -3.65428856543890   -0.42484651647847
C         3.40050834515785   -3.59200145359260    1.09074607873320
C         2.13118758765026   -2.83483769009665    1.47672664647626
N        -2.45919213415525   -1.27813438720423    0.85241057608079
C        -3.43807565971346   -0.48910111607195    0.46190501931608
Br       -3.15228673165823    1.36657493082652    0.34897073760735
H        -6.85271255386812   -1.03095559616368   -1.59765629952252
H        -7.42050502408546   -0.92892522196571    0.09871813662177
H        -7.40255177744707    0.52674330901568   -0.92909286121011
H        -5.87465079192232   -2.75818613687825   -0.19445135238581
H        -3.98417128673613   -4.24212925938242    0.38201255103414
H        -1.45423493183399   -4.44190043370200    0.68351932228399
H         0.80513876761355   -4.52172410645577    1.25748404947026
H         1.11167396938722   -2.53322492897374   -1.03606029278006
H         0.18454001020981   -4.03566214583471   -1.10321050818935
H         2.41315226288449   -4.33474276837635   -2.12726193374426
H         2.25242111252982   -5.34962725641726   -0.69197157544508
H         3.65455827589899   -2.64324716014362   -0.82292442414325
H         4.45028867312570   -4.21339968171777   -0.68981504363948
H         3.36013781446865   -4.60673709451217    1.49320747722128
H         4.26541573388576   -3.09315303447117    1.52936051287940
H         2.18836201292018   -1.81109946887019    1.10578034582346
H         2.03847774120776   -2.82033700691985    2.55906785819266
Cl        0.27570126110594   -0.07256638475197   -0.20157152915573
