74
 energy: -109.686547564347 gnorm: 0.000469948429 xtb: 6.4.1 (afa7bdf)
Ir       -0.66677662963960   -0.49519411976370    1.55794796413176
C        -2.60166748217117    1.66711768217245    3.56527958755883
C        -1.36934050623532    0.89165415400779    3.25474693748790
C        -1.19124416095423   -0.47169207188361    3.71815112892102
C        -2.22326055194391   -1.26250910428771    4.44961340736580
C         0.19163498688800   -0.79603119399152    3.63352746177585
C         0.83430820328560   -1.95705037379126    4.30474150690830
C         0.85114723147759    0.29430178736987    2.96303493750084
C         2.32992829951791    0.48426290295475    2.87564240925107
C        -0.12007164167096    1.36239724252442    2.77684843433321
C         0.28402355590876    2.75774819949589    2.39321641574068
C        -0.53078909326605    3.39864502918465    1.26649496310946
C         0.05550378661938    4.76412571957099    0.92094830892695
C         0.05121834530808    5.67410513927822    2.14689119134894
C         0.83208266580228    5.03354508309991    3.29123655847327
C         0.25570544165006    3.66337983949392    3.63657735524324
H        -3.50070119369336    1.08984549138166    3.36455625901882
H        -2.65508435009962    2.59874304999569    3.01535961613042
H        -2.58962288118171    1.89265270737644    4.63328660335394
H        -2.01566743881731   -2.32724809409800    4.39028073575444
H        -2.21741021529049   -0.97416586521753    5.50122171184106
H        -3.21838843896815   -1.07406636043393    4.05586541334368
H         0.92929672552768   -1.71961849713157    5.36555858410665
H         0.22539107341642   -2.85417499583650    4.22310913851100
H         1.83130453689050   -2.14800045063259    3.91980859159711
H         2.85895853568827   -0.45213983351114    3.02749038446890
H         2.62320000032677    0.90922988853323    1.91779941477920
H         2.64143489930630    1.17690088358533    3.65853181508299
H         1.31916365504822    2.71194891003776    2.04199900532753
H        -1.57063450052894    3.53161680573315    1.56216658149166
H        -0.50724969087176    2.75051867837942    0.39040871772667
H        -0.52739294248005    5.21901957435344    0.11787116390204
H         1.07955197827422    4.64427686406666    0.55989240282952
H        -0.97941882847498    5.85053832150875    2.46306197930479
H         0.49085666030815    6.64126173607466    1.89458754766218
H         0.79653289489860    5.67796655000338    4.17202642599013
H         1.87920502229501    4.92736410642490    2.99873174345328
H        -0.77042863626315    3.78208148072864    3.98371139138312
H         0.83609392669259    3.20835414667985    4.44162396074811
C        -7.25345843828481   -0.55384443154054   -0.14876677735300
O        -5.93583384831198   -0.07048660726539    0.07534630987578
C        -4.94030152546840   -0.92877070958000    0.25460912063938
C        -5.02427089935566   -2.32370373177519    0.22917859014213
C        -3.86467589002761   -3.06331058497010    0.35778794408056
C        -2.65271850276534   -2.41728800800190    0.58852349329083
C        -1.37419599062359   -3.05999953505217    0.51818728719680
N        -0.30276821425543   -2.38260752301140    0.75094766283677
C         0.93947762334177   -2.98058444341196    0.32776477469438
C         2.19624291687515   -2.10915294536471    0.25782738075734
C         3.01888826228399   -3.30095941898207    0.80044561527279
C         4.04871235160067   -2.96364069658782    1.84624663629849
O         3.78830151068411   -2.48665316577934    2.92775771675736
O         5.27232137619225   -3.23600599373415    1.41821716747289
C         6.38330688624475   -2.94749787531070    2.27029944898016
C         1.69710600510744   -3.92260165329113    1.28931965844560
N        -2.58198091232565   -1.06715531841337    0.71953310264192
C        -3.66777103489224   -0.35799167255104    0.49059219656633
Br       -3.54975980758521    1.51604948017148    0.37979937823034
H        -7.60653475095862   -1.13339891012260    0.70678777527991
H        -7.86685193641814    0.33648023323793   -0.26667727188844
H        -7.30195575945416   -1.15564893511013   -1.05850417542477
H        -5.96901789838207   -2.81661708436579    0.06878359619102
H        -3.89066866296005   -4.13789796279445    0.27816962107263
H        -1.32895792182257   -4.07600122788170    0.13657645591304
H         0.77170178476847   -3.48085868624608   -0.63042197914012
H         2.14956387802276   -1.28998003128274    0.96811797337333
H         2.46559109122243   -1.72730904874581   -0.72163614644653
H         3.49481154798736   -3.87284546038251    0.00586233079856
H         6.86075271838610   -3.88924773238769    2.53824332045932
H         7.07650866384045   -2.32411181150164    1.70828171828402
H         6.04138476892192   -2.42919349187512    3.16680184779907
H         1.51169379278887   -3.67849939003307    2.33034173939913
H         1.57072499194369   -4.98851393798241    1.12342289914598
Cl       -0.05623041883667    0.28234329849758   -0.60318216750551
