70
 energy: -110.953010277571 gnorm: 0.000220774484 xtb: 6.4.1 (afa7bdf)
Ir        0.12459420159431   -0.58876896970472    1.68432612598190
C        -1.46033476773511    0.64288668730711    4.36987877620735
C        -0.17369330284464    0.26163687633303    3.72217627964096
C         0.48326009039641   -1.00014866410844    3.85414045800920
C         1.75444072071971   -0.91729135732283    3.17745040520361
C         2.85276062212959   -1.92356173444174    3.26229190244087
C         1.90224507014458    0.41177253434081    2.67172736463824
C         0.68814781555129    1.13125047666461    2.95330463647735
C         0.49627490595233    2.56751404444692    2.71560340842842
C         0.14042787516437    3.41745784248664    3.76193315999773
C         0.01010332880881    4.77462964843878    3.54490128108397
C         0.23064155025034    5.32394330398663    2.28248300280585
C         0.12063000910054    6.77416025615510    2.06638146894259
C         1.06075188885726    7.44332493225279    1.28503794988311
C         0.97446447013419    8.81065521855682    1.09816593493703
C        -0.05654840291217    9.52984724298225    1.68077519828595
C        -1.00061291175773    8.87321825499971    2.45363698380861
C        -0.91125623678528    7.50713780674271    2.64908875587657
C         0.57763282132285    4.46870213792999    1.23713618399350
C         0.70990605444630    3.11110480920009    1.44812900861680
C         3.13650364919434    0.98009723200462    2.07045350688912
C         0.02157719913451   -2.14032242590981    4.69211854573105
H        -1.28246531971556    0.84890113015277    5.42593814434515
H        -2.18554390244310   -0.16520137142699    4.31067068831814
H        -1.87956109033550    1.53394122507024    3.91083919744186
H         3.47477257159721   -1.69736426056601    4.12931798431471
H         3.48091176822495   -1.89003209888861    2.37676551185760
H         2.46144835633777   -2.92970076045663    3.38114831684081
H         0.00314517867809    3.02010419432295    4.75498329225373
H        -0.23817503745202    5.42391325609114    4.37077485153313
H         1.87797653211285    6.89300570559606    0.84190667363604
H         1.71592263116146    9.31902737361212    0.49889330821608
H        -0.12304816159470   10.59791873831372    1.53374310257209
H        -1.80869941654885    9.42979989660664    2.90591041220045
H        -1.65881963634443    7.00190509812694    3.24299101522523
H         0.73276705342944    4.87191779368851    0.24791524907807
H         0.96512904319431    2.45951147810164    0.62533525794537
H         3.21692383545589    0.70889797838130    1.01743835777354
H         3.12401057371853    2.06540916056076    2.13877944898484
H         4.01277275627419    0.59103458998612    2.58478740916940
H        -1.05894740327103   -2.13821281664991    4.80179312902388
H         0.33852810747987   -3.09265510148766    4.27417819907205
H         0.46280279140609   -2.04725825122005    5.68523735148276
O         1.87645231416393   -8.05716083719915    2.25078119340851
N         2.43055281135323   -7.11229645711966    1.71913398379313
O         3.58359541063108   -7.13072064795509    1.32949112383894
C         1.67779134083798   -5.90365424021917    1.54058801970673
C         0.35639154813853   -5.85003522068990    1.97668412679262
C        -0.37307571390721   -4.69361020990606    1.79107873095617
C         0.22337273719893   -3.58758838492778    1.17901383412062
N        -0.50295114443096   -2.40668471396651    0.98622299965576
C        -1.60428474907262   -2.41882266544048    0.30562042021669
C        -2.28156672592207   -1.16530253534871    0.14435573495279
C        -3.44438797164782   -0.98925374238437   -0.60668660308464
C        -3.98777630333606    0.27803842089928   -0.71117534094440
C        -3.34968656266672    1.33427042916955   -0.06976185506998
C        -2.19577823529346    1.08907517275042    0.65597468909506
N        -1.67362616253089   -0.12782406307947    0.77199871438832
C         1.55407873202545   -3.64495940649941    0.75820094225080
C         2.27925287864162   -4.80469318973048    0.93047931421901
H        -0.07857013497663   -6.71717059570232    2.44894909145261
H        -1.39620629839401   -4.63559712886209    2.12802360717732
H        -1.97769652776361   -3.32322338911788   -0.16120813625978
H        -3.89484668609194   -1.83670869090874   -1.09774730214172
H        -4.88669246629360    0.44452855854918   -1.28354378605064
H        -3.73839279831787    2.33752779026426   -0.12961848751271
H        -1.67204900041631    1.89362044766934    1.15307686024370
H         1.98907781457499   -2.78324777909711    0.27650086092693
H         3.30362544866611   -4.87908576990462    0.60037308517214
Cl        1.06763156259817   -0.26347626237703   -0.47382106053161
