64
 energy: -99.266633039674 gnorm: 0.000233243209 xtb: 6.4.1 (afa7bdf)
Ir       -0.65111133705493   -1.28108114756450    1.19355084347645
C        -1.61594958723927    0.94800501216243    3.71330260255007
C        -0.58764788271687    0.10912820758456    3.04239533521564
C        -0.32330702928085   -1.26688423099969    3.39776464275561
C        -1.02373717270314   -2.01237495560144    4.48202781059382
C         0.91389741273546   -1.65571568137754    2.78079478707999
C         1.70967747049621   -2.86405717706489    3.13247222753238
C         1.32305588767033   -0.58662694991056    1.92659438697638
C         2.61828592932404   -0.46954467155744    1.20043477099353
C         0.39137112859601    0.51525109407767    2.10352755887257
C         0.62477299790404    1.88504059652527    1.56416706452342
H        -1.32940655614768    1.07061982452764    4.75843513686282
H        -2.59536631497259    0.47600301864522    3.69168831993684
H        -1.69325025761525    1.92820564506807    3.25596038266601
H        -2.07698523611800   -1.74883912462784    4.52051548728708
H        -0.92969121981700   -3.08618124019809    4.34569780396520
H        -0.57529380949525   -1.75324652175494    5.44193872745843
H         1.07031332582731   -3.69602553921117    3.41287733197881
H         2.34913637525876   -3.17772769952989    2.31285857251204
H         2.34318798587178   -2.61853882154678    3.98580308242502
H         2.46100026891247   -0.10608206160048    0.18669183107812
H         3.13635098227552   -1.42313590053303    1.16457945283612
H         3.25232388542943    0.25072822734240    1.71779719506966
H        -0.25466500169543    2.51023485566522    1.68147788875892
H         0.88546813668398    1.84055850160459    0.50927057683932
H         1.45572784412383    2.34475570443277    2.09969695972144
C         2.93901219229446   -8.23779983393364    1.15733879674592
O         3.03532846047111   -6.97218794382553    0.53093754392162
C         2.00669136367306   -6.11397982408216    0.62511097530791
C         0.82398373294629   -6.34648403070996    1.31837721293157
C        -0.18700931980938   -5.40259804207672    1.33996142794086
C        -0.00713018752978   -4.17889025891326    0.70167065648213
N        -1.00161043364739   -3.20417696877467    0.69682981225635
C        -2.23327235935202   -3.54554036950146    0.44582918429976
C        -3.18911419177531   -2.49681187932816    0.33160053165682
C        -4.48526589983211   -2.67682705278169   -0.16522471423205
C        -5.27779770411679   -1.57271448296094   -0.37742727173937
C        -4.74850049097975   -0.30094991259225   -0.11748515461309
C        -5.56486295103529    0.83721199270924   -0.29934587968529
N        -6.25676374438741    1.74045460426048   -0.44301094445097
C        -3.43482834123505   -0.18809564913619    0.36215714916002
S        -2.69373100809774    1.38301338134740    0.67000097299290
C        -2.72676983158595    2.11636908949356   -0.99280743613382
N        -2.69705593331871   -1.26479644410750    0.62411112381497
C         1.19038216250645   -3.91374168443044    0.02228661149929
C         2.18092641836040   -4.87194332908263   -0.05182862977216
O         3.34244754004372   -4.73862641532556   -0.72647957214820
C         3.54929818042763   -3.56989512446306   -1.49619079337176
H         2.83219487043994   -8.13593170784120    2.24046550146786
H         2.10487175929471   -8.81757268288356    0.75376575618548
H         3.87519011960949   -8.74391528111122    0.93141591755106
H         0.67801611284246   -7.27545460556426    1.84399305313661
H        -1.09215669839674   -5.59942977472607    1.89218804892606
H        -2.50306752818881   -4.57007308302568    0.22243170967475
H        -4.83915964875783   -3.67002967143361   -0.38605391873451
H        -6.28868447530802   -1.66451717341920   -0.74342661135773
H        -2.27843042418585    3.09842361389167   -0.88222148884161
H        -2.12044261049155    1.49817200656437   -1.64823648555960
H        -3.74456876093685    2.21305279276391   -1.35419118526548
H         1.28569982909359   -2.96731903709741   -0.48507383600897
H         2.76492499587208   -3.44432440788571   -2.24695495069174
H         4.50734612575570   -3.71463636025564   -1.99069396321725
H         3.59615499502875   -2.67939512964012   -0.86435794642908
Cl       -0.28113854230079   -0.71554528503684   -1.09352198353501
