65
 energy: -101.524048935101 gnorm: 0.000225028612 xtb: 6.4.1 (afa7bdf)
Ir       -0.65093667695675   -0.72855416241893    1.12764742588825
C        -1.76182992978510    1.88848831378218    3.05251239830437
C        -0.67437015921262    0.95469977855485    2.64054872036810
C        -0.38648425630913   -0.30784244326855    3.29250544576343
C        -1.11332505659993   -0.84290440598330    4.47935331164921
C         0.87850056945161   -0.77760724247862    2.80579548792180
C         1.65701908931471   -1.90989104894894    3.37876814152584
C         1.30187494042257    0.10727079620385    1.76787808600590
C         2.62942524127573    0.11705065963327    1.08932467145501
C         0.35247816845966    1.20721270400607    1.70008679262948
C         0.56910377377446    2.44143923247417    0.89374066932847
H        -1.41422457329553    2.47337257387302    3.90504006209598
H        -2.65090108621744    1.34606441287790    3.36360092688195
H        -2.01630686275269    2.58068058795597    2.25424808960238
H        -2.18312797832746   -0.67024449913329    4.40000743701817
H        -0.93692126121822   -1.90795681977513    4.59804801611170
H        -0.75551532523800   -0.33694299971542    5.37680794205829
H         1.00558141806816   -2.71326725003788    3.71190936305053
H         2.36414715800506   -2.31168997556904    2.65912675357218
H         2.21589509527685   -1.54652062526610    4.24182151188441
H         2.52710290551492    0.41651486025876    0.04890901976133
H         3.10333270755480   -0.85875670179991    1.13324291962058
H         3.27862404304926    0.83953237897647    1.58502271554740
H        -0.25859545740977    3.13622284072693    0.99596081480084
H         0.68897614754771    2.19291082216677   -0.15942753937280
H         1.48261371951682    2.93335004502534    1.22676436566747
C         5.03417914771250   -8.99346431798543    2.53701575011802
O         4.97466013791440   -7.78240792252357    1.80937092746729
C         3.81407490433065   -7.08773694605076    1.76661657224690
C         2.62219326096572   -7.48788808767610    2.40963573081997
C         1.49656701781315   -6.71854312278911    2.31815845441161
C         1.48930154052954   -5.51510200647604    1.58251519911614
C         0.34071475309527   -4.71276425425185    1.47650274978403
C         0.37728065771781   -3.52896200614817    0.77109647058725
N        -0.74352240810874   -2.69880369342659    0.69351830823220
C        -1.90286117997441   -3.18335710960345    0.37344092813191
C        -2.99643763090073   -2.26462322359383    0.32866691340532
C        -4.27910009936126   -2.58590326503439   -0.12971277502604
C        -5.22663786339030   -1.59367812749592   -0.19803211721085
Br       -6.99048057097755   -1.94199787626200   -0.81280974752845
C        -4.89789986058754   -0.27409372658601    0.18661938562521
O        -5.85610131347630    0.64081509556633    0.08933594859979
C        -5.58572031401133    1.99040985262697    0.43986249119136
C        -3.59904003911372   -0.05042724408082    0.64735669691377
N        -2.68235717359340   -1.00950988536038    0.72185560311106
C         1.56817538733794   -3.12274669206045    0.12376116584285
C         2.68334804283557   -3.90209229502825    0.19071673851636
C         2.68807695257468   -5.11093243273456    0.92933389043248
C         3.83086217181196   -5.91134820133899    1.03907190388054
H         4.82038352513060   -8.83312256551259    3.59743537972483
H         4.34704781317442   -9.73937192823142    2.12773603187550
H         6.05725248086614   -9.34737758973321    2.42531361921934
H         2.59364872551444   -8.40415391097653    2.97698452797984
H         0.59041894817213   -7.03408176213779    2.81337713533406
H        -0.56166889275692   -5.01390564288619    1.98804243361069
H        -2.03060431796802   -4.22437603724021    0.10266317340095
H        -4.50858711875201   -3.59306625797479   -0.43653051350522
H        -6.50940485162443    2.52830149121793    0.23838054889171
H        -5.33808087938172    2.07412389840322    1.49986260129682
H        -4.78183527887621    2.40002221765709   -0.17460100623721
H        -3.28731524758729    0.93445969385717    0.95720051924185
H         1.55050789083550   -2.20906609805301   -0.44936154574116
H         3.58685223723384   -3.60703474168588   -0.32091375977188
H         4.74694173146693   -5.61816563101166    0.55103938177613
Cl       -0.49275564049489   -0.29604147950903   -1.21796626489604
