66
 energy: -116.322189619244 gnorm: 0.000603802474 xtb: 6.4.1 (afa7bdf)
Ir       -0.82096117431820   -1.35908910102878    1.29002998763870
C        -1.97663590722430    0.44108894332922    4.00125831371614
C        -0.84088921746370   -0.15899675782175    3.25383218799661
C        -0.34735342554338   -1.48860622428866    3.47303171213658
C        -0.85635944443264   -2.43374216068666    4.50681788073586
C         0.87445605630563   -1.63574613780314    2.73083476984713
C         1.88222650890963   -2.71587793080822    2.90991845859051
C         1.08208091713054   -0.43652848770670    1.97830128466630
C         2.32720631710544   -0.11171563873222    1.23098201507998
C         0.01078840418689    0.48357471229688    2.30132018919219
C         0.01907452101403    1.91005833795323    1.94765202025886
C        -0.02890094083531    2.86736057191951    2.95879780049917
C         0.02942780015656    4.20533451727833    2.61921441253001
F        -0.01386550484539    5.12457309323458    3.60609104118949
C         0.13447521375612    4.64022410501573    1.31052329645535
C         0.17886917239803    3.66482006798486    0.32987201226790
F         0.27807760585656    4.05014318405836   -0.95946930466992
C         0.12727296764009    2.31542403296418    0.61887312259662
H        -2.24587127118781    1.41342550214431    3.60195372194520
H        -1.68307798645712    0.55628519371659    5.04546652292692
H        -2.84956221527629   -0.20792071954543    3.98128977718031
H        -0.59250062584988   -3.45852545019805    4.26123041885192
H        -0.40420307947689   -2.18886297087171    5.46850088592925
H        -1.93462080662123   -2.35631684660833    4.61275146745644
H         2.54191514198205   -2.43256340478247    3.73139855568854
H         1.41867649326958   -3.66553427390786    3.16032044692256
H         2.48954768258900   -2.84166879791307    2.01890396102359
H         2.54157067655817   -0.86976693603617    0.48100500023310
H         2.24935279034622    0.85201010290258    0.73709292811286
H         3.16300498643084   -0.08334666407341    1.93072653984089
H        -0.08494913047165    2.58672852771604    3.99738239921303
H         0.17773945774861    5.68839495411669    1.06654967825232
H         0.13629850100476    1.59501880121565   -0.18423760156174
C         3.32956753438905   -3.71712314027914   -1.62950326006237
O         3.16861214007352   -4.85133004174711   -0.79723574952020
C         2.05255980535209   -4.95766239466958   -0.05525584771215
C         1.02869986087879   -4.01880822662556    0.00765660166562
C        -0.09963959790583   -4.25583325135977    0.79281407255800
N        -1.12700101220781   -3.29710411522443    0.78870944007251
C        -2.33565731685538   -3.66732484067783    0.51508098619856
C        -3.34321716377751   -2.65823429143375    0.43687860192959
C        -4.64585130110625   -2.90073718296619    0.00325447912493
C        -5.52313121172815   -1.85007123290924   -0.16689340584228
C        -5.07239578033719   -0.54988761650701    0.08140680953651
O        -5.76784076245350    0.56945748809754   -0.05502374758223
C        -7.12059974939343    0.51283010178909   -0.48912972976037
C        -3.74031967122513   -0.39511693346474    0.53112355554385
Br       -3.16744697471767    1.37321917750601    0.82945354214861
N        -2.90982234655324   -1.40103924939792    0.72972551138553
C        -0.21702461819157   -5.41925638563446    1.54677359921597
C         0.80971308075138   -6.34901777026766    1.51713900215719
C         1.91497580009013   -6.11949023977834    0.72644873700458
F         2.90182223415873   -7.03769738780924    0.69684934952356
H         2.51505460798793   -3.63658297650392   -2.35293087183606
H         3.39197734057701   -2.79999263066590   -1.03868370188593
H         4.26912304685489   -3.87524907942587   -2.15406939450850
H         1.06206302055705   -3.11132882501708   -0.57407914704297
H        -2.57079799402291   -4.69811559550065    0.27471364845182
H        -4.95449553424763   -3.91106148320114   -0.21015618926388
H        -6.53015865923379   -2.03044441458562   -0.50570754611405
H        -7.18956245446925    0.09549390572789   -1.49583877926403
H        -7.72902776858313   -0.06976207033135    0.20514921611557
H        -7.46098685411072    1.54581659868422   -0.49718215340143
H        -1.08410497305138   -5.58592980794187    2.16462990544182
H         0.75845755689024   -7.25703072070914    2.09573287255536
Cl       -0.49876376873319   -0.89313951221942   -1.01739430955540
