64
 energy: -108.583495260572 gnorm: 0.000518470402 xtb: 6.4.1 (afa7bdf)
Ir       -0.04414241502455   -0.89175810773645    1.53774292829641
C        -1.66385126917206    0.40269659982333    4.18158224219487
C        -0.36509364943536    0.08244637898690    3.52637060100539
C         0.39572301494180   -1.10973750072439    3.73043008619387
C         0.04875480322882   -2.21258823931743    4.66765771962706
C         1.64415227972581   -0.97161787386766    3.02353804752571
C         2.82577985569530   -1.87156169687247    3.15595791029487
C         1.66502562089034    0.31288408462466    2.40302008750758
C         2.83987448711096    0.92755779128945    1.73165112288025
C         0.39800810007783    0.95164330506332    2.66272402016170
C         0.09698990985771    2.35358837248553    2.33769454627378
C        -0.28780986917618    3.24013960691989    3.34185456808792
C        -0.51519671517507    4.56443911213153    3.01679955702600
F        -0.87976792210341    5.41582609158821    3.99643226528527
C        -0.38127305318187    5.05142434453728    1.72843589086342
C        -0.00089084915700    4.14568242781146    0.75293608015218
F         0.13500229664105    4.58130512967416   -0.51513470991233
C         0.24003359112383    2.81329263793338    1.02844516271534
H        -2.16606706302086    1.22421953286331    3.67878948086396
H        -1.48007707234481    0.68996736375718    5.21757989034188
H        -2.32182654389080   -0.46307875882363    4.19496542434226
H         0.47491345422566   -3.15757932927174    4.34048670897875
H         0.46210659158514   -1.98128661484410    5.65012500689881
H        -1.02702134604828   -2.31946629253071    4.77249767835117
H         3.43084866135598   -1.53830532487119    4.00019240549862
H         2.52758300467016   -2.89944024198587    3.34074914678681
H         3.44326836801418   -1.83895466009441    2.26316363999283
H         2.97503312381330    0.52179020146939    0.72890435964814
H         2.71049626204524    2.00346334555600    1.64555582188770
H         3.74112016417113    0.71415998719313    2.30328279451291
H        -0.38101495725489    2.92270940573399    4.36688406070498
H        -0.56077793548437    6.08779520479262    1.49604679552311
H         0.52134347759772    2.14171881919270    0.23207048394593
C         3.15755964513310   -8.32602726794013    0.48929791936122
S         3.45165529191296   -7.22406658205717    1.89379089115108
O         3.08882337432111   -7.90453965574863    3.11466580379631
O         4.79105099578101   -6.69307456261922    1.80621582997648
C         2.28348800472194   -5.87749602788244    1.62990237249698
C         1.00385885648564   -5.98566552435294    2.14288844280553
C         0.09039754663559   -4.97047629661810    1.91829184459614
C         0.48094455438107   -3.84503404174107    1.19122964477690
N        -0.42630378054129   -2.79594869466160    0.96631700027360
C        -1.55143403771746   -3.02166671202993    0.36721085737568
C        -2.41078876842159   -1.88989327831237    0.16971695361002
C        -3.61801811384876   -1.92054834035794   -0.52809637984260
C        -4.33136991847904   -0.74548186170200   -0.68282706254329
C        -3.81662448762329    0.42688085870230   -0.14004322743308
C        -2.61159258382533    0.38564943642151    0.54125163957554
N        -1.92466703945911   -0.74087328157147    0.70331502542440
C         1.77771673770521   -3.74000947586013    0.68803924628155
C         2.67657833178875   -4.76903673692612    0.90147084560043
H         3.80987044687564   -9.18324496613077    0.60269928764274
H         2.12004850817582   -8.63171880014388    0.51270526328361
H         3.39624676491191   -7.78361270348586   -0.41581439893491
H         0.74575887361834   -6.85735930521648    2.72247303887013
H        -0.90936429907701   -5.03333129974740    2.31878242039831
H        -1.81502865910989   -4.00526414360381   -0.00384902987882
H        -3.97097417188262   -2.85136902859849   -0.94212709688679
H        -5.26641661444700   -0.73750658065022   -1.22035126777763
H        -4.33968520343627    1.36389640769943   -0.24081398311992
H        -2.18225947352411    1.28219690396127    0.96443024743262
H         2.05212487006294   -2.86625248519024    0.11769191990076
H         3.68696047042390   -4.72070140138466    0.52902508880844
Cl        0.72968247241915   -0.51076065484726   -0.67492696152692
