84
 energy: -123.669561066249 gnorm: 0.000653213539 xtb: 6.4.1 (afa7bdf)
Ir       -0.69663678352609   -0.59814734255536    1.56110156720080
C        -2.15438024381256    1.13005888532552    4.14968884804749
C        -0.94060677510196    0.49798402710795    3.56007748504188
C        -0.54982632901166   -0.87199759240224    3.75934317498877
C         0.78035427889347   -1.03448330485231    3.23019733172691
C         1.67435341707625   -2.19651475743717    3.49322605614275
C         1.14405781525716    0.17528352793646    2.58066060633911
C         0.07282363390577    1.13959197577815    2.79558702905259
C         0.20552661431041    2.58785898103520    2.56961579484463
C         0.14589137696134    3.44961315587564    3.66410925902987
C         0.33768039445776    4.80648613190605    3.49851612500059
C         0.59229717501868    5.34397924459869    2.23780200796466
C         0.82026109944169    6.78683063256291    2.06606553073015
C         1.82250384789332    7.24567576085859    1.21344833614739
C         2.04721631936068    8.60097201767032    1.05656303383922
C         1.27064575417052    9.52033267918425    1.74323531269413
C         0.26914827455825    9.07533780204371    2.59070985604497
C         0.04729272072049    7.72006273552691    2.75396154637970
C         0.63458116399035    4.47983311109731    1.14472303989788
C         0.44471288846582    3.12161114302441    1.30548473733503
C         2.48891727995481    0.51253058417059    2.03540344066702
C        -1.25393903913767   -1.84151614611518    4.64836412446319
H        -2.01832694316027    1.21828702156963    5.22798498703001
H        -3.04000156729349    0.52240291412230    3.97886919631334
H        -2.31865950973927    2.12122624121161    3.73671361794956
H         2.17349067214365   -2.03808940937470    4.44973501104239
H         2.43536686427957   -2.29388140982464    2.72495006974073
H         1.11642813801538   -3.12681365270317    3.55241355531727
H        -0.01964812034444    3.04876813366522    4.65241606008458
H         0.31686962906630    5.45626671659717    4.36065518807314
H         2.44322532128132    6.53499852522432    0.68728613237822
H         2.83209384645160    8.94290016159184    0.39749487897907
H         1.44591317272519   10.57886643020089    1.61834062563791
H        -0.34085768971023    9.78882784097035    3.12578221425591
H        -0.74399340216710    7.38249432106085    3.40734025292070
H         0.80398935476889    4.87923300269131    0.15583935147011
H         0.46148748149180    2.47046677028714    0.44393411085959
H         2.99825473230533   -0.37399014006110    1.66765917900326
H         2.41042433371410    1.23563908255434    1.22842615469603
H         3.09238252609282    0.95471750535749    2.82929988621816
H        -2.32994734151269   -1.69428277145015    4.61221980247407
H        -1.02606829784444   -2.86704787015598    4.37015186581420
H        -0.92519493712232   -1.69006761717020    5.67718337652813
C        -6.96322955074091    5.85586393050080    0.37644354010386
C        -5.73602811366580    4.97991315864015    0.57303567748425
O        -6.13812191049435    3.62619833013468    0.38657746669868
C        -5.25098745054937    2.63184814911075    0.51827602149842
C        -3.88600551679122    2.80859568061498    0.84558920740994
C        -3.05273680310011    1.73394339556239    0.98126004238648
C        -3.51325581870086    0.41940487372718    0.77766158587876
N        -2.67597750498783   -0.63526336558396    0.89787846858785
C        -3.10340330956366   -1.85709149153975    0.54240466738139
C        -2.08307566245057   -2.85636170441836    0.52766867219659
N        -0.88690883991778   -2.48237688277496    0.85891909135583
C         0.17842747273010   -3.38431503025967    0.81337599499582
C         1.40247654751008   -2.97075426102787    0.28706751228816
C         2.45563161914046   -3.85986354928027    0.21115541080951
C         2.33151248179087   -5.16506053951051    0.67957431574561
C         3.48010278351830   -6.11872477561966    0.62831707801446
C         1.11065544343096   -5.56098815818642    1.22330772567907
C         0.04136871706135   -4.69235918279403    1.28446962836666
C        -4.43866540928917   -2.11000189042593    0.16093287803002
C        -5.32821968168684   -1.07802843270000    0.12342439411161
C        -4.88111061276776    0.23614015446712    0.40192818100162
C        -5.72223626038353    1.34611920315066    0.30072354361241
H        -7.36651586467155    5.71569038094761   -0.62232161986790
H        -7.73012270281186    5.59518475904211    1.10048696925778
H        -6.69062289721728    6.89897610869190    0.50611259599853
H        -5.33418403682823    5.11227260148820    1.58483985416168
H        -4.96231290454501    5.24075920267629   -0.15955180071801
H        -3.48546726310136    3.79958871549883    0.98182858248388
H        -2.00806919418016    1.89082498251215    1.19711864753811
H        -2.29096598580839   -3.86043582794724    0.17725540270679
H         1.49605581636292   -1.96468572496825   -0.09261621437770
H         3.39126953645703   -3.53615796818075   -0.21922447771028
H         3.91976425556063   -6.22369562462699    1.62021378390210
H         3.14805261096873   -7.10444078233512    0.30959126537805
H         4.25170893105292   -5.76723026094568   -0.05116654911280
H         1.00086287690964   -6.56591678203026    1.60203226132466
H        -0.89197472466394   -5.00876323065591    1.72482883927087
H        -4.72693484533259   -3.11786931459021   -0.08814186972215
H        -6.36180191799679   -1.23738254007845   -0.14092018135990
H        -6.75650330515430    1.21143972179653    0.02782346051127
Cl       -0.16518315236803    0.13673492321300   -0.65164381365679
