78
 energy: -125.119017561976 gnorm: 0.000213123199 xtb: 6.4.1 (afa7bdf)
Ir       -0.15360317491557   -0.97330082579149    1.41759186958356
C        -1.32658408447214    0.54352394989008    4.23774410035591
C        -0.17059492875684    0.00763569554971    3.47103117856203
C         0.30566452889185   -1.34140175878783    3.57125991101405
C         1.52925166858856   -1.43527679335935    2.82183118609245
C         2.51337433826902   -2.54933476714281    2.90204350926391
C         1.77834840610884   -0.15626249127296    2.21820946499100
C         0.72437360155322    0.74278240443545    2.62072722146071
C         0.77405937252487    2.19760109829722    2.43975611303042
C         0.62242733187507    3.04308582101363    3.53813223678011
C         0.71276523741543    4.41130446545285    3.38489059968158
C         0.95979297813858    4.97898233562194    2.13608450093104
C         1.04607417627270    6.43835511513335    1.97984098760745
C         2.01787090233735    7.01215563002509    1.16244382281793
C         2.09990224645450    8.38572906789974    1.02401303364198
C         1.20818436180415    9.20828636207538    1.69309451572118
C         0.23481461953713    8.64825632514552    2.50455792265506
C         0.15613179725208    7.27559556037107    2.65027638388497
C         1.12171963836477    4.12929805141500    1.04258785837467
C         1.03180135801559    2.76055091364106    1.19003911099527
C         3.01934472711480    0.23145047504253    1.49414065554815
C        -0.22772382069803   -2.37923025985828    4.49917296372487
H        -1.04802476344538    0.60910837510362    5.29048941610086
H        -2.18566584993716   -0.12103676190976    4.17165798388487
H        -1.60902078857515    1.53136688810438    3.88812503725340
H         3.19473621030089   -2.34137377219856    3.72871993189252
H         3.09831163810366   -2.62949308586336    1.99093617426497
H         2.02920574888857   -3.50194249820303    3.09514527987984
H         0.46686294182135    2.62849626024981    4.52131871708916
H         0.61223621781685    5.05040859755450    4.24907981349594
H         2.72720306790081    6.37938392501316    0.64917653126440
H         2.86333686118291    8.81789895985055    0.39311307694038
H         1.27091538654641   10.28100311738799    1.58252019158295
H        -0.46578669191730    9.28533759603387    3.02475816852996
H        -0.61548418763232    6.84630298510894    3.27206020104273
H         1.29824794833803    4.54894324243014    0.06365786557197
H         1.12374523823069    2.11936185923253    0.32692041417393
H         2.91702501175814    0.05807515317655    0.42340847903946
H         3.21359108869390    1.29227159262692    1.63823952605910
H         3.86460641887637   -0.34842787144519    1.85531670426903
H        -1.30144411094656   -2.27679193654725    4.62891136863231
H        -0.00582416054956   -3.37982636306672    4.13807492251470
H         0.24355333056454   -2.25983906226811    5.47527368728274
C         6.26293179271747   -8.01161511123654   -0.63989582626365
O         5.01972070249988   -8.05651833985703    0.03468037945421
C         4.22015618994815   -6.96993912041889    0.03613766053667
C         4.54008979369068   -5.74170611853566   -0.58580782012933
C         3.66528309859508   -4.69391186792183   -0.53589715315640
C         2.42442513664575   -4.80490482015080    0.12852202936320
C         1.51468345535346   -3.73889723962418    0.19195715065097
C         0.28886016255853   -3.89861311428636    0.80749759835519
N        -0.62493913540110   -2.84713535695871    0.79369441779990
C        -1.86054685861464   -3.08861369470755    0.47564243002887
C        -2.75515087227924   -1.98172454622594    0.39793413670325
N        -2.24967985017426   -0.78519501670891    0.78882736145107
C        -3.00038222567339    0.29808772511437    0.60970499299360
Br       -2.27777321110200    1.97124734505842    1.07472720500440
C        -4.29144874303719    0.26479995631797    0.09693931938488
C        -4.84137515539115   -0.95374467432526   -0.27317290152044
C        -4.05239064988688   -2.07663122403721   -0.12577922450709
F        -4.50762820396109   -3.27965427192229   -0.49185803978294
C        -0.04526699005018   -5.13531458017645    1.41440033175375
C         0.84438082562787   -6.16594588525286    1.40186182563591
C         2.09722447363484   -6.04422962080301    0.75144142954340
C         3.01095834320541   -7.10098595638239    0.69894058048481
H         6.92281083715463   -7.25319729613101   -0.21024285305570
H         6.70372612182561   -8.99624620381419   -0.49698889693567
H         6.12900940845737   -7.82633968184208   -1.70913078487105
H         5.47713921028524   -5.62684308332113   -1.10634501623914
H         3.91635374119869   -3.75913981046989   -1.01389885869115
H         1.74482001670379   -2.80068937133949   -0.29147823432348
H        -2.19777517770411   -4.07854975936683    0.19032628279476
H        -4.84887645530819    1.18167011990594   -0.00534321807059
H        -5.83990719017670   -1.02986683138438   -0.67326672171396
H        -0.99590238953642   -5.23290942489534    1.91611350160468
H         0.60239143112985   -7.09985137437001    1.88524334315045
H         2.77812406185802   -8.04421826184252    1.16709282406834
Cl        0.29103546766084   -0.37461306319924   -0.83896988879636
