64
 energy: -94.171934859297 gnorm: 0.000822596353 xtb: 6.4.1 (afa7bdf)
Ir       -0.44405545046405   -0.06990828743904    1.97854296081072
C        -2.39416065964501    2.56214415690849    3.09015766660427
C        -1.18674224877038    1.69271394072823    3.20050653713885
C        -0.94425588476618    0.64677230063626    4.14013565721673
C        -1.84348080053635    0.15028151444237    5.21465353153551
C         0.43522931869217    0.25564024555366    4.03565033247826
C         1.10808455916570   -0.64488375132020    5.01651701215746
C         1.07396222376621    1.12948257295170    3.08548465577091
C         2.54247448143786    1.33018412925799    2.92050955269909
C         0.06673481921826    2.00836220664346    2.56346022913793
C         0.29538546632879    3.19251867877638    1.69465871565711
H        -2.13735753648333    3.56928212941268    3.41924779296309
H        -3.21276043713566    2.19255510892571    3.69883617437797
H        -2.73298567058518    2.62614240675685    2.05807352161277
H        -2.82880747588060    0.59865125998924    5.15482890625077
H        -1.94834805741957   -0.93163242332784    5.18076235995032
H        -1.39856909288943    0.40509302946073    6.17771965669543
H         1.11864528942794   -0.15580129103322    5.99127094386594
H         0.56921986750854   -1.58282592235291    5.12511800680115
H         2.13542581027632   -0.85383384220971    4.73580290260270
H         2.78766621636020    1.68392558290133    1.92237535264855
H         3.10540008939649    0.42639498083992    3.12997910675023
H         2.86069330796363    2.09799105352835    3.62771887130571
H         0.39316562096913    4.07710021620435    2.32590133074384
H        -0.54474195833621    3.34715366780193    1.02259660793140
H         1.20055619932234    3.08825082729889    1.10311782308088
C        -6.27142515249801   -3.35040295547907    0.58078080189064
O        -5.34378689646335   -2.45848745632630    1.18016553346301
C        -4.04421040349955   -2.59146160020129    0.92621891991202
C        -3.44945193074007   -3.54418179345395    0.09686400159611
C        -2.07878132667085   -3.51848536372476   -0.05019170494065
C        -1.31968041455741   -2.56180105674532    0.62167622361529
C         0.08957729071460   -2.42225375735516    0.42465421132230
N         0.71354137136371   -1.45519203569674    1.00040874974532
C         2.13584069465606   -1.35117590350468    0.77322508052048
C         2.92185360139401   -2.12742451277366    1.84154917212694
C         2.80238212121495   -3.64748966033258    1.69355272011862
C         3.62813731714663   -4.32815516251323    2.75282356088175
C         3.09518447249262   -4.57184276402625    4.01228321447226
C         3.86015150716244   -5.16632996089858    5.00032242304945
C         5.17384919864432   -5.52055083444088    4.74109103541996
C         5.71520213791025   -5.27917386255359    3.48945192556249
C         4.94663834510846   -4.68566687769859    2.50278362397537
N        -1.88208482392225   -1.64626665600072    1.45570279581822
C        -3.19663656359561   -1.67201473341895    1.57848844119745
Br       -4.06480701735576   -0.43479557586067    2.68129829314939
H        -7.24539480269702   -3.04424683954705    0.95564936355918
H        -6.25250173264689   -3.26067492041978   -0.50731210567795
H        -6.07071214219734   -4.38156903023339    0.87800375382031
H        -4.04463517712857   -4.27311106113588   -0.42784314923254
H        -1.58613463109474   -4.22438319617395   -0.69858456198275
H         0.59575675912294   -3.10578489987682   -0.24954467130978
H         2.41260124456534   -0.29849112317690    0.80733563158579
H         2.38632369342662   -1.74551800576465   -0.21630297078225
H         2.56230780175190   -1.84612721269454    2.83039735436101
H         3.97167800168100   -1.84428061910478    1.75958898361122
H         3.15430393546849   -3.95032950094089    0.70590761102505
H         1.75830820197786   -3.94697210331338    1.80293192278290
H         2.06992660146969   -4.30092521226145    4.21963827343080
H         3.43281217574773   -5.35596138784029    5.97405787993079
H         5.77339056436472   -5.98543998374426    5.51012270977252
H         6.73888341943872   -5.55531194889915    3.28097941043311
H         5.37620446218520   -4.50425179713221    1.52770390879145
Cl       -1.09603590078270    0.65774087375732   -0.20236657570853
