81
 energy: -134.754715781577 gnorm: 0.000505543350 xtb: 6.4.1 (afa7bdf)
Ir       -0.31589261027394   -0.53226943640406    1.40389168790657
C        -1.43908977684800    1.85941033238169    3.66450318118342
C        -0.32407239199559    1.04563349860656    3.10324796584218
C         0.07461659633342   -0.24451073696616    3.59615712917762
C        -0.52447970185443   -0.94627272426225    4.76510492873252
C         1.31617178871337   -0.59439748329951    2.96435283829691
C         2.20397273469335   -1.70921784649891    3.39132780815736
C         1.61111574573849    0.39248378349291    1.98222536816648
C         2.89129435948649    0.51342339223950    1.22768753425457
C         0.59053911274452    1.43160796110527    2.08386427627157
C         0.69763026334918    2.76872790173940    1.47557541989767
C         0.75780590050297    3.88405684105024    2.31096024124039
C         0.90548510666271    5.13767016336284    1.74919231852126
F         0.96485509872626    6.20991244069970    2.56643173373481
C         0.99188682462681    5.33784996726453    0.38308413081043
C         0.92592437172833    4.21154320326414   -0.41859696927599
F         1.00067689032934    4.36973293687921   -1.75592397884751
C         0.78215225420425    2.93682863103887    0.09520896490772
H        -1.61736021891606    2.74819489318628    3.06704348606896
H        -1.17634818398028    2.16423040190969    4.67803801704996
H        -2.35900748490532    1.28160458560258    3.72230384319120
H        -0.58053334160134   -2.01707518221037    4.58477547927537
H         0.09924468485056   -0.78296687809755    5.64418761178208
H        -1.52279542032688   -0.57466359530287    4.97385267854755
H         2.85532193763643   -1.34706358983244    4.18748969307649
H         1.62157660061283   -2.53923352200136    3.78110364191947
H         2.82847705912375   -2.05927766460573    2.57448700181965
H         3.25683201352347   -0.46508931611469    0.92812784668289
H         2.76692468225199    1.12984900017803    0.34257832562200
H         3.64160631425844    0.97714195258983    1.86874246606842
H         0.71632938464868    3.78412610483830    3.38308077682793
H         1.10707355034144    6.32326551056144   -0.03620530976349
H         0.70744231397460    2.09293285075496   -0.57371154061571
C        -5.78163293313566    4.98749946673878    1.74326214198919
C        -5.98388621633331    4.44517252670817    0.33217741430167
O        -6.23324468206683    3.04371382131552    0.32219903440328
C        -5.24293087210493    2.15919417676791    0.49623239098207
C        -3.86804744112726    2.47935109908501    0.59948678550344
C        -2.93098223650432    1.50057381242530    0.77514580569611
C        -3.29358245329345    0.14195565190702    0.85185565658437
N        -2.35782483388034   -0.81590980623114    1.03237607323841
C        -2.71263473635060   -2.10656223708131    0.93639478272131
C        -1.61646657625300   -3.02172273767414    0.95463084629476
N        -0.42954092864665   -2.52221841669194    1.08284360298306
C         0.69911706985911   -3.34368286744809    1.02125502254879
C         1.71812353271975   -3.01445101272645    0.12946820686777
C         2.81603287968447   -3.83354921633375   -0.04008856207719
C         2.93033018633084   -5.01661824041778    0.69505389967313
O         3.94451352629784   -5.89132430075452    0.60653436121219
C         4.99595288268569   -5.64335535026142   -0.31191614008515
C         1.92734796768637   -5.33286763577047    1.61943159121548
C         0.82186151338595   -4.51885860555655    1.78925896395609
C        -0.14550979787242   -4.83266910044087    2.87885497852157
O        -0.72781573246501   -3.98761186366504    3.52394874498936
O        -0.26683900024836   -6.13754045164823    3.07323992873315
C        -1.11043917994982   -6.58045076153465    4.13795010159044
C        -4.05395589031960   -2.51104500918676    0.76432784874486
C        -5.03083749135297   -1.56422070192254    0.67913896007219
C        -4.67459929794840   -0.19413389187416    0.69279225272834
C        -5.61662145549810    0.82378760949193    0.53637531198236
H        -5.64893472013214    6.06447255067999    1.69946944073086
H        -4.90828977984516    4.54321439307216    2.21392829646818
H        -6.65340176442756    4.76583554864023    2.35309416842329
H        -5.13431121018748    4.69005787023614   -0.31411908398806
H        -6.88711697568135    4.87547142371825   -0.10645774829219
H        -3.54157032872037    3.50378630029898    0.52486135323471
H        -1.88354361128749    1.75761791629683    0.80693782059552
H        -1.77406596852224   -4.08139199453883    0.78924928842815
H         1.61508370411225   -2.11696214137365   -0.46157075362275
H         3.57171064794501   -3.54962968086326   -0.75393071623553
H         4.62184204023665   -5.59720841928365   -1.33749218220536
H         5.67346444585226   -6.48817288156958   -0.21032713914838
H         5.52564625959175   -4.71994531081813   -0.06606673761406
H         2.03616809315926   -6.22797921411683    2.20917952196370
H        -1.52195508326815   -7.53794829056856    3.82921140903192
H        -0.51340065698995   -6.70153093886877    5.04302036686965
H        -1.90227785101071   -5.85264521497291    4.31959077061412
H        -4.27757672957208   -3.56359103339379    0.70853984268776
H        -6.06912708863167   -1.83669656744439    0.57349655549646
H        -6.65983769824645    0.57589161815043    0.42415856866474
Cl       -0.15003598604005   -0.24517426768230   -0.95550464389333
