68
 energy: -119.161058921957 gnorm: 0.000344021139 xtb: 6.4.1 (afa7bdf)
Ir       -0.38186694995370   -0.61957820060533    1.56583224340985
C        -1.88219878646807    1.24948338506014    4.02411401910726
C        -0.63952937246337    0.66727065663647    3.44785140545364
C        -0.11571367553331   -0.62816966238376    3.78458916595991
C        -0.68819605861254   -1.54285738752564    4.81240323061818
C         1.19080067392238   -0.74500614377972    3.19339607703053
C         2.20801139948559   -1.77969348442429    3.52263153380413
C         1.42361111200055    0.41235055966734    2.39883557900646
C         2.72177546388076    0.75831968945760    1.75842931019760
C         0.28077480053968    1.29962809483352    2.55906235529103
C         0.26967812182623    2.71382754281160    2.14956553042245
C         0.09981173468207    3.70220942935995    3.11857125891584
C         0.15120098098148    5.02984287852316    2.73919353480553
F        -0.00775567964037    5.97890794654142    3.68430974348835
C         0.36095809365375    5.42495489903093    1.42987802667465
C         0.52015196800862    4.42035878863104    0.49119780264993
F         0.72213459418947    4.76732008768938   -0.79573436020473
C         0.47976691499739    3.07879419361466    0.82074045464361
H        -2.16341300861342    2.16724566344533    3.51709216643049
H        -1.71079741765873    1.46807471786317    5.07880414058047
H        -2.71019204694289    0.54637908267452    3.96803721835281
H        -0.36231050013191   -2.56571130554051    4.64756718281446
H        -0.34151999439590   -1.23284869934792    5.79880502746133
H        -1.77368907197612   -1.50672990947073    4.80951341903589
H         2.76540270253679   -1.44542003643606    4.39860263392564
H         1.74903199444878   -2.73506425248729    3.75873327664350
H         2.91101562291764   -1.91592600219590    2.70642063421861
H         3.05847739414330   -0.03974470845517    1.10100642911766
H         2.64179861484196    1.67435065256634    1.18185659489459
H         3.47660434978034    0.89413944928498    2.53319664924844
H        -0.04110903657468    3.45247140427842    4.15708594259653
H         0.40144551555264    6.46557841631157    1.15461880186269
H         0.58580073850613    2.33279337461027    0.04751939562293
C         0.63570476708290   -7.12305818182683    3.15551476036071
O         1.78068432770327   -6.64351816281788    2.47125031118043
C         1.71240939034283   -5.46236722603009    1.83482210226466
C         0.60314018053748   -4.62372829776589    1.79635599653021
C         0.66015052316853   -3.40394305320026    1.11724985649838
N        -0.46449510440247   -2.56741902685156    1.07512951073980
C        -1.62542919210950   -3.05277664373467    0.76361329493663
C        -2.71183574326943   -2.12908563731626    0.66799015532526
C        -4.01117040644029   -2.51213993551517    0.27857430154393
C        -4.97518413128569   -1.55469614704063    0.14478072907209
C        -4.63410770212577   -0.19726506248567    0.34070916486880
C        -5.56856408635042    0.83749075088497    0.15437362604556
C        -5.18756296369297    2.14680127671688    0.30524233256384
Cl       -6.32754420636625    3.42480017388009    0.06854415776843
C        -3.85807849001871    2.47064718334762    0.63289483188150
C        -2.93897549634950    1.48042909328429    0.83983329147803
C        -3.29515134733780    0.12224192368185    0.71888169828744
N        -2.38070503148484   -0.85380815900727    0.93107881616891
C         1.82138459854197   -3.00426200120822    0.46337869649513
C         2.92400729085152   -3.84137078639046    0.47054280758510
C         2.86624707395240   -5.04002512537178    1.14921693665396
F         3.95095026990620   -5.83923707465935    1.16389417679606
H        -0.19914122363896   -7.27421697924010    2.46722643697011
H         0.93467539810513   -8.07971988174569    3.57792265091842
H         0.34481338837510   -6.44509123259780    3.96130238897493
H        -0.30367368799671   -4.89345751820132    2.31303089005651
H        -1.75604206605151   -4.09814011752260    0.51059527891414
H        -4.21852559307306   -3.55398765076489    0.09725008866499
H        -5.98646768318074   -1.81148085048516   -0.12918455358552
H        -6.58057431683364    0.58778157478620   -0.12143051166163
H        -3.57294884459504    3.50692410069912    0.71214185388192
H        -1.91216555751862    1.73143283850951    1.05058925901022
H         1.83377570614982   -2.07192148561851   -0.07796722271736
H         3.83223088254861   -3.57535651350116   -0.04556661556420
Cl        0.06327188491199   -0.10537628513745   -0.71257092298602
