58
 energy: -91.763114787330 gnorm: 0.000296419809 xtb: 6.4.1 (afa7bdf)
Ir       -0.69494587465434   -0.80409606809774    1.12834754635414
C        -1.96126455187467    1.64287770587122    3.18149604727619
C        -0.83929174117634    0.75204242283415    2.76808838656810
C        -0.57268414986664   -0.55347037088763    3.33173918644107
C        -1.35692838119393   -1.18520208102882    4.43141166643454
C         0.72772608954379   -0.97144348788650    2.88227900957256
C         1.47970793945943   -2.14850681468122    3.39940612831358
C         1.20288576520737    0.00039521698205    1.95513651042654
C         2.56599617462322    0.07848750842373    1.35547967061719
C         0.23687246862564    1.08578997809849    1.90852211282500
C         0.47618752642034    2.38199883823296    1.21472270800395
H        -1.66557959318937    2.18119162762150    4.08303030940462
H        -2.85694246256586    1.07229066284598    3.41267240120726
H        -2.18991224377844    2.37855770651805    2.41483314239475
H        -2.42316832467791   -1.02062885011565    4.30113784513197
H        -1.16893722240852   -2.25347686794928    4.48534837302358
H        -1.06091077838511   -0.73996529187014    5.38204168365993
H         0.81548113766871   -2.98002450555054    3.61927130125684
H         2.23260789331133   -2.48135332911285    2.69070133470499
H         1.98307502688438   -1.86433513842298    4.32402387426700
H         2.51280584920013    0.42537462480034    0.32597948559110
H         3.06572406463247   -0.88519262856320    1.38015040248670
H         3.16539489643992    0.79400290493258    1.91928780468393
H        -0.40713438967025    3.01297425864814    1.23090602387458
H         0.76456014703360    2.21354458594357    0.17893265658991
H         1.29243717790964    2.90899239390477    1.70922127959109
F         3.73503878859339   -5.94671961616456    0.55443126204513
C         2.63725308351059   -5.16240633344624    0.54797310324618
C         1.46800451524547   -5.64005123305458    1.11577000485183
C         0.34278732023273   -4.83727603207174    1.10050405178363
C         0.40133768814103   -3.56286575159184    0.53545256024026
N        -0.73008517493708   -2.73487545658176    0.51474078205597
C        -1.85812260618456   -3.18805287448617    0.06040330053365
C        -2.95828256267489   -2.28038657262255    0.04463146337410
C        -4.21806433314908   -2.56191716086030   -0.49668401688615
C        -5.18100771891369   -1.58179801911383   -0.51741271841564
C        -4.87572656570105   -0.31144275300153    0.00115524018205
C        -5.82893935592104    0.76433671318401   -0.00007017451569
C        -7.13681802916602    0.82668201954005   -0.43836306936237
C        -7.57456288137372    2.14125514686756   -0.19367582857040
C        -6.51390674590159    2.79094533397046    0.37296200136486
O        -5.46408657417767    1.97439826651939    0.49425283965595
C        -3.59417578921452   -0.11266195799359    0.53193432941577
N        -2.67139116877749   -1.05802378208191    0.56464829559771
C         1.59336679632103   -3.09816439989378   -0.02037513082435
C         2.71604560810677   -3.90256095039917   -0.02412441191059
H         1.44859193747513   -6.62382540138721    1.55613586385441
H        -0.57512572531951   -5.18678457219132    1.54694020854354
H        -1.94986721628449   -4.19144601297115   -0.33861255282954
H        -4.41095096755358   -3.54204819482915   -0.90173205183454
H        -6.15463359665549   -1.77748302507334   -0.93456688336372
H        -7.71196235081602    0.03855103701674   -0.87782505466873
H        -8.54022337295310    2.54938126779733   -0.40784016411918
H        -6.39852378178512    3.79950030984040    0.71820551595714
H        -3.33106374933209    0.85330905689433    0.93537052360186
H         1.61288628878713   -2.12086240263698   -0.47637559458261
H         3.64233454402513   -3.57052319483279   -0.46444240999543
Cl       -0.34002074714918   -0.20040345579908   -1.15838117513744
