75
 energy: -113.810894731527 gnorm: 0.000473133187 xtb: 6.4.1 (afa7bdf)
Ir       -0.58457797535428   -0.67377134805283    1.29423021617257
C        -2.16761348149295    1.22744703697660    3.67621596015912
C        -0.91646213496346    0.67024279044930    3.08518206835366
C        -0.34319543454762   -0.57448955293196    3.53085788624864
C        -0.90977823100666   -1.41396231153438    4.62587319000454
C         0.98493096883010   -0.67320986426094    2.98464956438807
C         2.05926170665070   -1.61032684114090    3.41812356339054
C         1.17860527805745    0.43240705527153    2.11531041198996
C         2.46256725780387    0.78412098504729    1.44512984602888
C        -0.00624285330628    1.27744987966700    2.16687237013268
C        -0.01855057407286    2.66799854041172    1.59160700394400
C        -1.25238592586001    3.02415195866409    0.75706985296951
C        -1.07492495499260    4.41204002141275    0.14673733845762
C        -0.86463813922058    5.45620735790847    1.24110405192271
C         0.34234815089055    5.09532984261960    2.10328331446777
C         0.17607240258439    3.70483697655233    2.71016149148783
H        -2.97281649131658    0.49565578949916    3.66255394894727
H        -2.49206634531235    2.12831369154257    3.16880723583489
H        -1.96951553052835    1.47680915295870    4.71945365315292
H        -0.48507498215094   -2.41315062626263    4.62151260360242
H        -0.67860009214103   -0.95077527916245    5.58596182181639
H        -1.99015572250312   -1.49215502246882    4.54200454037154
H         1.67373420193842   -2.39664083789205    4.05764886709584
H         2.56056955771299   -2.06559511012304    2.56701944489955
H         2.80211817919914   -1.04419868351842    3.98102087883428
H         3.14167559003656   -0.06323700667332    1.44213652311790
H         2.29210812191557    1.09250207664876    0.41571823724366
H         2.93662803129584    1.60981746124510    1.97636888829240
H         0.84072058567932    2.74205064903063    0.91866141929775
H        -2.14962214884933    3.03454575957254    1.37605418341134
H        -1.37735421295318    2.28171536489399   -0.03273209371983
H        -1.95381374075843    4.66813620049446   -0.44817524871556
H        -0.21270618721574    4.40821216089655   -0.52352789870389
H        -1.75639666047542    5.51101492041707    1.86996891966452
H        -0.71621675412939    6.43974916920962    0.79117474489376
H         0.46307894836705    5.83153808084727    2.90060022709417
H         1.24503823480134    5.12033034448516    1.48841713299160
H        -0.68724826126720    3.70159846678292    3.37610164414487
H         1.05741473660643    3.44959987994011    3.30123243562563
C         3.38122063447381   -6.27487970498701    3.23945211152914
O         2.28736276348269   -5.38700329742983    3.08997462784612
C         1.99916693783252   -4.90043746027913    1.86561174444554
C         2.70391862588195   -5.18664043011457    0.69633596371964
C         2.29990035215395   -4.63474254833490   -0.50806214466202
C         1.20198803004455   -3.80126908771121   -0.55616272552270
F         0.80493624220588   -3.29314914374369   -1.74383294400587
C         0.49727716988973   -3.47057487873020    0.60595793454749
N        -0.60577433274876   -2.60268158400896    0.57473645464847
C        -1.61865721187169   -2.90228241503596   -0.17700240626715
C        -2.69991525386281   -1.97413582747510   -0.21304653129186
C        -3.87138485909513   -2.15137001159519   -0.95807198511525
C        -4.85013650971345   -1.18907000165493   -0.91667726658568
C        -4.65011594478560   -0.04321999065589   -0.12594745494381
C        -5.65639836071081    0.98091283116161   -0.04085615749566
C        -5.68863678792335    2.19244541649355    0.62023109774694
C        -6.94227374666631    2.76525568916230    0.33923295424824
C        -7.58920969570316    1.87201273635086   -0.46866236645227
O        -6.82697340471163    0.80176596062759   -0.70174982277234
C        -3.44803981410367    0.06189442891188    0.58280077925988
N        -2.50582824535135   -0.86711121581311    0.55107006335330
C         0.90271531928479   -4.03702924258776    1.80434070526398
H         3.40707209573930   -6.52401535176539    4.29799295025416
H         4.32130892873289   -5.79633890586817    2.95420793858997
H         3.23623835168902   -7.18598304412087    2.65380709488545
H         3.55946191151275   -5.84079600582993    0.70550815067892
H         2.82936199502281   -4.85591183002401   -1.42084323284131
H        -1.65542933245884   -3.82230536965735   -0.74969625654825
H        -3.98258369111607   -3.03739500330363   -1.56174179210697
H        -5.76323285781775   -1.29475002203884   -1.48011700574962
H        -4.91439384905087    2.62391101682754    1.21880308771606
H        -7.31625134883736    3.70619406197776    0.68486898777727
H        -8.56101304279016    1.89466264478858   -0.92128164147687
H        -3.25816578036040    0.92801992667097    1.19468363328749
H         0.34351482881104   -3.83691025232263    2.70181398510236
Cl       -0.04778223498064   -0.07182321752468   -0.95081177036620
