84
 energy: -120.372123057029 gnorm: 0.000388586259 xtb: 6.4.1 (afa7bdf)
Ir       -0.70302734865824   -0.63377432860826    1.25665841430929
C        -2.22967977755408    1.09920797420449    3.82071883371496
C        -1.00151421479042    0.47936088148250    3.24878416572232
C        -0.59734413634086   -0.88075289566332    3.46908334688902
C         0.74323869676126   -1.03208016586576    2.95826157455475
C         1.67778252962390   -2.14728475686529    3.28394089100552
C         1.10401201847361    0.17880303382790    2.30784213907026
C         0.01521138513223    1.12686818739216    2.48969385486830
C         0.14230762509806    2.57352043737651    2.25024606431581
C         0.04190149709764    3.44971323245602    3.33033793418870
C         0.23980299178992    4.80430911088891    3.15318964522919
C         0.54496299111567    5.32472598901499    1.89657407184106
C         0.79131473873598    6.76385675253445    1.71934733366493
C         1.83694004259704    7.20529050829483    0.91092906011303
C         2.08347372436582    8.55692388457823    0.75458338820182
C         1.28494572741369    9.48986905299913    1.39609374700453
C         0.23973635689039    9.06211649225704    2.19844276467715
C        -0.00319605434667    7.71063146043404    2.36253487106022
C         0.62548294640035    4.44677494886639    0.81684025500809
C         0.42661459161996    3.09134027886378    0.98838382326065
C         2.45843036283742    0.52723910337869    1.79441070901041
C        -1.30512378906961   -1.84359100568367    4.36264980212022
H        -2.12504013494252    1.15063433958889    4.90503882587807
H        -3.11372128463346    0.50278606111809    3.60402891321206
H        -2.37757200380448    2.10354245010644    3.43552242801256
H         2.27188045315045   -1.84856387237529    4.14909295461115
H         2.36580638494594   -2.34712852296634    2.46696467673004
H         1.14387719539922   -3.05591662604314    3.54700157455198
H        -0.15803021317182    3.06273011031618    4.31777373214842
H         0.18767527977303    5.46596124721454    4.00488144157315
H         2.47429098458473    6.48397889319960    0.42045723834249
H         2.90313217750710    8.88487945542126    0.13174195104988
H         1.47738338261764   10.54554632225256    1.27198819043262
H        -0.38742491634374    9.78608642710383    2.69828526899950
H        -0.82676128315510    7.38693244503024    2.98211424237690
H         0.83366128189074    4.83287308416536   -0.16994018231325
H         0.47131796959823    2.42962835915486    0.13615311488695
H         2.99127926845176   -0.35329024973613    1.44518461252234
H         2.39464647079721    1.24532844878732    0.98186850464975
H         3.03520452705503    0.98044928799497    2.60188190189630
H        -2.38094934375007   -1.69955499356584    4.31463081729531
H        -1.07683786935778   -2.87249897196873    4.09890415120911
H        -0.98613626292553   -1.67888372524537    5.39264907868544
C         3.89769781219873   -2.20866957335706   -1.66380685320944
C         3.75042613809229   -3.39245927237092   -1.09840979228478
C         2.52984594395626   -3.90596931823961   -0.39336986606619
C         1.35951727695402   -2.92817358547336   -0.37576696996687
C         0.18363798976381   -3.48402138943164    0.43455935518205
N        -0.88780136255141   -2.52303873408365    0.50486156448616
C        -2.03867569343869   -2.82031523592784    0.01139283475206
C        -3.05271120923594   -1.80871148920360    0.01577383204642
C        -4.35660402287708   -2.03084420912689   -0.47342472638824
C        -5.25204942999173   -1.00264929877360   -0.47500743918516
C        -4.83222190961966    0.28207520385304   -0.05646219527058
C        -5.68081797181602    1.39055265124539   -0.09637904071478
C        -5.23514291512212    2.65560030788858    0.25375057530603
O        -6.13102041973934    3.64828702169397    0.18339173159169
C        -5.75574628782117    4.98215030152801    0.51198827708132
C        -6.99241398367969    5.85584969370366    0.37219650625398
C        -3.88242795092333    2.81541187663203    0.63527135827939
C        -3.04401251538178    1.73885854483515    0.71183076066745
C        -3.48518811530617    0.43964063569778    0.39893387018688
N        -2.65076328533860   -0.62140933163777    0.49030819888827
H         4.81945674165705   -1.93189270341889   -2.14728084987447
H         3.11874379068959   -1.46634158117294   -1.68060895764101
H         4.57147243046394   -4.09918204708200   -1.11848896868640
H         2.81524189776601   -4.16758459268101    0.63064248732454
H         2.22523908860824   -4.83706335937815   -0.88037333415153
H         1.67329600778962   -1.97788738809279    0.05678083302504
H         1.02900472179249   -2.73100104425845   -1.39572828501904
H        -0.17410299990586   -4.41257344427161   -0.02161557361600
H         0.51970083898529   -3.70053882008516    1.45080280068310
H        -2.24008746225690   -3.79020202703776   -0.43231529977686
H        -4.62065434393174   -3.01390616595323   -0.82662601699019
H        -6.26698895708316   -1.14170160647360   -0.81295276824782
H        -6.70081605898239    1.27185152604766   -0.42478194226897
H        -4.96932542606995    5.32506081724968   -0.17168307329902
H        -5.38049682834162    5.01935957134189    1.54175333309391
H        -7.37360583998487    5.80421942834025   -0.64382256033434
H        -7.76903960531062    5.51778496634685    1.05256674558618
H        -6.73910897439591    6.88594012109792    0.60465200314400
H        -3.49418190058350    3.79538329716699    0.85982814037761
H        -2.00738193454169    1.88800291306569    0.96469124241756
Cl       -0.10966924335308    0.10184819407565   -0.93605506394792
