83
 energy: -132.106088749895 gnorm: 0.000901651460 xtb: 6.4.1 (afa7bdf)
Ir       -0.44314615416918   -0.71872721652972    1.69658120003402
C        -1.62384843784842    0.92979335616845    4.47092369022665
C        -0.47889960952410    0.35562709615449    3.71482778409929
C        -0.00502825239712   -0.98466113107682    3.89242161993555
C         1.21097125501851   -1.12796147388550    3.13442957059611
C         2.20421405963390   -2.23569275326796    3.22152705993302
C         1.48470940827233    0.12834799563287    2.49731251618488
C         0.42876970638436    1.04565768847294    2.83794193539292
C         0.49719423233428    2.48681891890544    2.57329943957227
C         0.34186360809604    3.40592971150373    3.60949496485834
C         0.47070002544005    4.75952418880441    3.36897562459222
C         0.76203275477193    5.23767421977658    2.09254587684895
C         0.91216267751757    6.67846870373918    1.84115409814969
C         1.92336137833098    7.14820138283936    1.00484606499567
C         2.07123454937377    8.50302933013001    0.77166151188704
C         1.20687239879540    9.41009069815967    1.36299265316806
C         0.19608103815988    8.95391620310606    2.19351615084298
C         0.05147070117849    7.59993557615212    2.43454659719675
C         0.91576440813166    4.31379174228519    1.05862431958667
C         0.78758367425320    2.96032763741842    1.29308941141539
C         2.74760496509880    0.46875859123769    1.79157055140125
C        -0.54606863885605   -1.92718131601570    4.91310688194683
H        -1.33037810379526    1.04415637245079    5.51559318367946
H        -2.48208810058596    0.26246085656650    4.44648927297173
H        -1.91329766099563    1.89830019933022    4.07743718429264
H         3.02826098141658   -1.91256255181851    3.85904433216845
H         2.60913837480772   -2.47291112705442    2.24065202838479
H         1.77296294777236   -3.13387939612853    3.64884472214738
H         0.15520722205533    3.06046710738666    4.61353451450669
H         0.37050502358266    5.45645728013001    4.18718801243877
H         2.61196795293890    6.44931498604541    0.55277144575458
H         2.86436133195590    8.85438562750903    0.12757367151756
H         1.32156655946544   10.46801004089365    1.17794253013291
H        -0.48192490968576    9.65769691927579    2.65422013726524
H        -0.74844286857913    7.25231088286288    3.07199663655739
H         1.12297004762838    4.66413600656441    0.05828306181656
H         0.87852714332241    2.25990957446636    0.47696735768643
H         2.70556280209197    0.16177193350114    0.74678077118743
H         2.91262816379618    1.54342226250811    1.81722364482784
H         3.58527024364730   -0.04345082405512    2.25943982481033
H        -1.62190711976994   -2.04929709309693    4.81128503614003
H        -0.06686781928928   -2.89840054807821    4.85049379638166
H        -0.35352586407678   -1.51550975621066    5.90447777649338
C         1.34434397127361   -2.28630137504804   -3.32869434992629
O         1.47998943831779   -2.98275035692662   -2.09219289022970
C         0.36609125889758   -3.24022489482602   -1.42348544972507
O        -0.74964709433896   -2.99120406690959   -1.82840590321656
C         0.64137940033950   -3.96281823100177   -0.14535267991591
C         1.59307626683682   -4.97558213026764   -0.14011200108146
C         1.80602969279982   -5.74357233053936    1.00345960627690
O         2.69473715689184   -6.74758630071082    1.10495636673098
C         3.51182619694641   -7.06613806115418   -0.00738948204072
C         1.03954544464197   -5.48062912388542    2.14717917992010
C         0.13235192711319   -4.44655162567503    2.16080590661299
C        -0.06991477396378   -3.66654010866422    1.02367890293061
N        -0.96991270014476   -2.58227755610449    1.04006858495488
C        -2.08332175826188   -2.70747065549531    0.39898485873319
C        -2.89978925086724   -1.54368312553393    0.23320460154786
C        -4.05077869697121   -1.55168934684096   -0.55663558157986
C        -4.74495947507404   -0.37420588415380   -0.72375437650478
C        -4.26052020115088    0.79022487183449   -0.11799024092691
C        -5.06130725924619    1.94898444859779   -0.21206268788837
N        -5.77984270698093    2.83957283376790   -0.29189983135640
C        -3.06026150755449    0.74044586276411    0.62083525934627
S        -2.31281800287441    2.11933884468670    1.37152640394591
C        -2.65461909526778    3.52513473384700    0.27598100608681
N        -2.42139558376836   -0.42261183507578    0.81917767145770
H         2.33327678372037   -2.27450903190016   -3.77760760379638
H         0.62546635133360   -2.79409741172823   -3.97381454345923
H         0.99630008972915   -1.26979635754881   -3.13584528152449
H         2.13942579248396   -5.16266183085041   -1.04928141299014
H         4.12709748793971   -6.21277655342239   -0.30338202600616
H         4.15318071013264   -7.87819549452431    0.32834027880732
H         2.91185462711192   -7.40400470047469   -0.85630620584891
H         1.18490545889267   -6.10617958453304    3.01279754646623
H        -0.46150900679801   -4.25043664905672    3.03868365475514
H        -2.38523737858481   -3.64915189125708   -0.04213773451251
H        -4.37056129866788   -2.46674825046397   -1.02522116040910
H        -5.65582420773015   -0.33221764170944   -1.30102041848601
H        -3.58802789624873    4.00999734546599    0.53958622114180
H        -1.82050081988178    4.20312172782238    0.43812115113834
H        -2.66140886179331    3.18985641050071   -0.75542401436673
Cl        0.27929645951502   -0.29499557205520   -0.50967278762439
