75
 energy: -102.654280005287 gnorm: 0.000492270925 xtb: 6.4.1 (afa7bdf)
Ir        0.99419205846945   -0.58682996542012    1.86113744470931
C        -1.29040269796845    0.96815489238944    3.75379790637385
C         0.07908777121620    0.40838219169432    3.59433641619832
C         0.43359786206705   -0.91910934046388    3.99498935730991
C        -0.48498448960130   -1.89813322931849    4.64397033980045
C         1.84858609555322   -1.06199379178520    3.83745435898968
C         2.67512260036891   -2.22325615424322    4.25398034353285
C         2.38600715645063    0.21161690295169    3.38544259168567
C         3.83382593988172    0.51720258286075    3.25307863178612
C         1.30166669259073    1.12445033704257    3.23864365101780
C         1.46384783740644    2.57980390399381    2.92314542130410
C         0.71914527974832    3.03561563788559    1.66005213729960
C         1.04517733875920    4.49809771799031    1.37086184800461
C         0.65671209824235    5.37884194283021    2.55618505409317
C         1.36616007434241    4.91370597696596    3.82533035836639
C         1.04271237563721    3.45128068486193    4.11961458921406
H        -2.04623688584676    0.22918370884207    3.49660438144302
H        -1.44530907053370    1.85559560491243    3.15071627180217
H        -1.43460166742702    1.23403195838510    4.80233649468932
H        -0.14826936450220   -2.91962804224080    4.49694452394742
H        -0.50765024315555   -1.69902060217156    5.71563933610070
H        -1.49794728934685   -1.80137183818311    4.26471100750515
H         3.20791634463539   -1.95979040431709    5.16893395824890
H         2.06526371250739   -3.09864021454904    4.45401915469361
H         3.42269967868497   -2.47071373258908    3.50244125312759
H         4.41368999074083   -0.38950686200438    3.10982908598286
H         4.02442270132880    1.18797046606738    2.41947130553854
H         4.17984411173164    1.00257786995184    4.16653540812399
H         2.52863446813883    2.76025584865711    2.74682953538585
H        -0.35819911644448    2.93627453654380    1.79407321822094
H         1.02038809841687    2.41192746523452    0.81568648750119
H         0.51197662646244    4.82405762618168    0.47564742935229
H         2.11438564453905    4.60324846437286    1.17380274700211
H        -0.42463391573903    5.33408713675863    2.70540436005150
H         0.91818226884988    6.41694063950363    2.34476026714037
H         1.05576575406168    5.53074768887078    4.67048558139551
H         2.44463294691478    5.03596603162256    3.70314532983216
H        -0.02651905393417    3.35128625235438    4.30014189177421
H         1.57251048514765    3.12671161225181    5.01622715699499
C        -5.81222505049159   -2.77999682741579   -1.39578837311484
S        -6.52940068899630   -1.12621269632470   -1.62684698149886
C        -5.19597479899601   -0.14366936343621   -1.09114849896386
N        -4.10324446132345   -0.75491392879085   -0.68280548576706
C        -3.06625375300782   -0.03861489460834   -0.25726171625651
C        -1.88702222438296   -0.76887505524463    0.17733953691159
N        -1.71723568227873   -1.99768633867655    0.02027369683862
C        -0.60235191151890   -2.70415291951840    0.40536192301724
C        -0.94237295317314   -3.83764412864395    1.36950491361707
C         0.32464231953205   -4.55716844873321    1.81899732330352
C         1.09659624986250   -5.09528989116397    0.61808088219691
C         1.44134880476064   -3.95773187503792   -0.33864219668509
C         0.18128558518799   -3.23118579915438   -0.79721059465552
C        -3.08359980380610    1.35682514559136   -0.21787002218707
C        -4.22235087839529    2.01637647459647   -0.65184839253732
C        -5.30919601558005    1.27135484781085   -1.09939562940916
C        -6.48490626866724    1.90725740672703   -1.54580242202658
N        -7.43481416712559    2.44187686556594   -1.90568184259066
H        -4.92343424451080   -2.86431672549529   -2.01040479489056
H        -5.56745277438154   -2.91149083734888   -0.34821487983144
H        -6.57517914287499   -3.48332212752744   -1.71178991877253
H        -1.08284942846785   -0.15896290024276    0.67815269472459
H         0.16691174102941   -1.93721944661089    1.00805991310811
H        -1.48882956822331   -3.44126620997969    2.22494449032191
H        -1.59777180119772   -4.53213002803659    0.84286366748812
H         0.05845221389457   -5.37469779364853    2.48901316013740
H         0.96270852735783   -3.85602004230794    2.36377519385552
H         2.01116615523780   -5.58608268281242    0.95307670631424
H         0.49301513003832   -5.83941901442160    0.09586462137655
H         2.10363273149086   -3.24279101546383    0.16101187765790
H         1.96912464600397   -4.34480970031726   -1.21079786104472
H         0.43962533891300   -2.39974214521772   -1.45517541173451
H        -0.46694503500483   -3.91233551715148   -1.34952150965022
H        -2.22431125165763    1.90878341359091    0.12616552741489
H        -4.27971274279502    3.09455505678068   -0.64690187027815
Cl        1.83660998510870   -0.13014836194667   -0.16384536180889
