82
 energy: -121.803378629633 gnorm: 0.000563307991 xtb: 6.4.1 (afa7bdf)
Ir       -0.65757812192418   -0.47527979788346    0.69572072716271
C        -2.64337698479923    1.26829350001453    2.86067778639828
C        -1.35422659269196    0.58509975374092    2.56966957615624
C        -1.07526474654204   -0.79871906432366    2.88611283357952
C        -2.03666034955773   -1.73457551893849    3.53573226555967
C         0.32785180140541   -1.00935657059597    2.75996660899448
C         1.04691077472526   -2.20140406083966    3.28306795952597
C         0.89614896372056    0.16555207840797    2.17649467752328
C         2.34727679329761    0.46332612706916    2.00387293428985
C        -0.15031891013896    1.18464579381323    2.12328683059190
C         0.11268725370944    2.62331806811464    1.96448411890412
C        -0.28993488531582    3.49764846979291    2.97403813015491
C         0.00848773785860    4.84190808901117    2.86064621756950
F        -0.38316525749982    5.67538319152332    3.84819839613621
C         0.69214774384383    5.36617248149915    1.77879263420727
C         1.07558324895043    4.47364470867400    0.79266765596306
F         1.73886327745422    4.94912600952038   -0.28131207220470
C         0.80641446955720    3.12102720091043    0.86369779470308
H        -2.71032368082875    2.21208863037783    2.32881394604076
H        -2.70244433341113    1.46476369189219    3.93227454458597
H        -3.49266246466891    0.64369429639534    2.59688245965698
H        -1.77707102059977   -2.76901613091459    3.32774411372516
H        -2.00708322134845   -1.58991945420694    4.61643432561499
H        -3.05308193433515   -1.54989566771767    3.19877805147662
H         1.06606988881619   -2.13461415348019    4.37197497223882
H         0.53391983011101   -3.12335716471949    3.02097826392142
H         2.07115923412782   -2.24747035249721    2.92828326497603
H         2.56471344334882    0.77379123133636    0.98392595456298
H         2.62786352892667    1.28592420700597    2.66151334747322
H         2.96117795457247   -0.40029990096373    2.24369504035592
H        -0.80375341033839    3.14478266316882    3.85269378229836
H         0.91577556998630    6.41742895990157    1.70757771644168
H         1.09754671233549    2.47439006741986    0.05183723179092
C        -1.55082373079228   -2.92025671166127   -0.33390789556912
N        -0.45677059398377   -2.25260074664668   -0.26560861564476
C         0.73492476421665   -2.78551786943407   -0.87673279924447
C         1.94471417486652   -2.81600611410483    0.05262583622358
C         3.20812509749517   -3.24377453005067   -0.70245048940880
C         4.38553293215769   -3.27239188740861    0.23302400848259
C         5.04357859871403   -2.09392589000859    0.56529481884601
C         6.11343628462185   -2.10495176947242    1.44260755030659
C         6.53905860499765   -3.29838634629460    2.00324096751360
C         5.88719570750079   -4.47715503791153    1.68259269165550
C         4.81608818280668   -4.46237935300438    0.80507319417903
C        -2.79114660685483   -2.25707347834907   -0.01466505317293
C        -3.98066998386172   -2.93570259782812    0.15383299073059
C        -5.12930012793421   -2.17976761778133    0.38782650266669
C        -5.05569416913624   -0.81376717367829    0.31800653452003
C        -3.82394212424535   -0.15778210946246    0.04518954257443
N        -3.76616456887160    1.17044380704573   -0.18385608830190
C        -4.94311368628039    2.01781459747675   -0.04685044083325
C        -4.56410666316701    3.46533351927087    0.27287186895392
C        -3.57511844320385    4.02503925735041   -0.74122701643977
C        -2.35888223920243    3.10948927706431   -0.78095189364216
C        -2.79725004150011    1.69651643524118   -1.13539210479248
N        -2.69032984312518   -0.89943242929164    0.01142442916282
H        -1.58020279831855   -3.93434094918537   -0.72080734320347
H         0.53606303470959   -3.78686258622536   -1.27107790971402
H         0.96561976590308   -2.11766121924613   -1.71512180328350
H         2.09947893786479   -1.81905123489890    0.46200710936112
H         1.76473848930197   -3.51572437157271    0.86854626443122
H         3.40026123045132   -2.53761210318788   -1.51204456712136
H         3.05992559901341   -4.23310897831012   -1.13787783130295
H         4.72331102339881   -1.16217553378316    0.12175549348643
H         6.62089286223098   -1.18272329857199    1.68627223428683
H         7.37833339114058   -3.30973964214757    2.68331766258487
H         6.21698318117350   -5.41100544114828    2.11449365076383
H         4.31749956335979   -5.38815789189371    0.55566734363883
H        -4.00858235120087   -4.01096732662554    0.11855788236679
H        -6.07421933049563   -2.66428617312410    0.57558213686126
H        -5.95866487047973   -0.23860141876535    0.41875533722298
H        -5.56500933230557    1.65594671144998    0.77056016997426
H        -5.52475435410635    1.99600710149850   -0.97725390875805
H        -5.47792127080744    4.06086795525256    0.28411981545301
H        -4.12326442275205    3.51771790394004    1.26928520871617
H        -4.03702622524096    4.06917678226122   -1.72978562752558
H        -3.28442579864801    5.03881232928482   -0.46355774725531
H        -1.86059638654063    3.11227240055273    0.18892428230193
H        -1.63908204102305    3.44910358625981   -1.52548365434805
H        -3.26868310547368    1.71100009363141   -2.12751156899429
H        -1.93683777645765    1.03407489549070   -1.17726367740364
Cl        0.41080214727567    0.40770779544733   -1.24945458165920
