68
 energy: -112.198197457010 gnorm: 0.000279715164 xtb: 6.4.1 (afa7bdf)
Ir       -0.14788839102837   -0.57030120276887    1.67586514583359
C        -1.80275626707610    1.21886214212907    4.08603680049584
C        -0.54132584006662    0.64190263778179    3.54475054446955
C        -0.08304204679098   -0.68150449532011    3.89377119480196
C        -0.77198472914286   -1.60912519709632    4.83308333982908
C         1.26959310908651   -0.82384443551578    3.42816681451906
C         2.19229281800067   -1.92373458684924    3.81494979524204
C         1.60061698566718    0.34741735295489    2.68761370332552
C         2.94093601537849    0.67360155595526    2.12730720190412
C         0.47234140862183    1.27050812380378    2.76205625173742
C         0.57141417745623    2.70821051796265    2.33012021346605
C        -0.56736677175125    3.19706951994151    1.42832094878181
C        -0.29248647769857    4.63186428198543    0.98532120581906
C        -0.15739847774634    5.54821231338034    2.19922127073303
C         0.95659844539374    5.05617604236127    3.11970913044524
C         0.69473946833379    3.61934676507534    3.56292012892033
H        -2.62744230808552    0.51414904209742    4.00297450113958
H        -2.07512984655022    2.14753099409220    3.59832255277693
H        -1.65397518931840    1.42283755551048    5.14745858412504
H        -0.44866161986035   -2.63459643294562    4.67781147191123
H        -0.52196697408523   -1.32916837339734    5.85718224355887
H        -1.85148815297674   -1.55634074461441    4.72449103197330
H         1.68276476053683   -2.88333234598402    3.85061191937737
H         3.03729636036525   -1.99656224984707    3.13781695792420
H         2.57543176361303   -1.71088790795003    4.81368061632966
H         3.52131247854702   -0.22624956733989    1.94912810383231
H         2.85294142975643    1.21290586926775    1.18768015770362
H         3.48202872851242    1.30221225677956    2.83474176291081
H         1.49406737735621    2.81187883095776    1.75159885836871
H        -1.51918304672898    3.18028483517137    1.95889889224257
H        -0.64304799647093    2.54664859219457    0.55525310083505
H        -1.10449505756713    4.98194272539385    0.34497109863721
H         0.62882386542815    4.66601307590311    0.39953464326913
H        -1.10211077462587    5.56859560842294    2.74800845454264
H         0.05540936638488    6.56739804615191    1.87128932409211
H         1.02691171837033    5.70209272986291    3.99710032902251
H         1.91119355484110    5.10949162020471    2.59130413090908
H        -0.22495230866429    3.58415520075995    4.14676513218496
H         1.51171037493542    3.27196846338447    4.19737630850859
O         2.60403510376320   -1.92669521438556    0.19084582730975
C         2.21443168217330   -3.07423330883549    0.72909572131444
C         3.20624702338142   -4.03309136440578    0.97605662046092
C         2.91053677578327   -5.26014774746018    1.52338894489667
C         1.58747938456527   -5.56907550659027    1.83312213915759
C         1.21800304736409   -6.88270041942505    2.45549231626616
F         0.87534012103244   -6.74747888521486    3.75710667947612
F         0.14843680047143   -7.44928542697253    1.86184877724813
F         2.20136296067468   -7.78977830279395    2.41917938418825
C         0.58237119884342   -4.64622498598867    1.59843000192508
C         0.87976571288356   -3.39453058619774    1.06164002307368
N        -0.16082448708560   -2.46871560634775    0.89519535654108
C        -1.23825444787995   -2.82793230427346    0.27013397998443
C        -2.30760482706093   -1.88031740492751    0.20447092539935
C        -3.49229281377237   -2.07742279975012   -0.51105107750212
C        -4.44843151584744   -1.08320291743354   -0.52634699849085
C        -4.18405592471980    0.09117488082065    0.17757905773050
Br       -5.44773796587763    1.51118354220121    0.21781164744728
C        -2.98697512323589    0.22888928089705    0.86902626722653
N        -2.07406968275374   -0.73210334503023    0.88943976574798
H         1.87934032843079   -1.32739638741433   -0.10305834077480
H         4.22076893702335   -3.77628513614486    0.71812023544939
H         3.69268310703350   -5.97884707836582    1.70779002568992
H        -0.43803754659538   -4.87994770517224    1.86340196001829
H        -1.32011477628396   -3.79640033340795   -0.20970287809255
H        -3.64439541637070   -2.99891023877843   -1.04986899079003
H        -5.37351634690729   -1.20368310885620   -1.06786704773690
H        -2.76898490198079    1.13672019256571    1.41057883062731
Cl        0.43110066311403    0.11667105810193   -0.55695801994340
