78
 energy: -142.331813245156 gnorm: 0.000676961912 xtb: 6.4.1 (afa7bdf)
Ir       -0.72753398115958   -0.45962869083783    1.09930029046057
C        -2.22236899625588    1.09144663449098    3.75111890297009
C        -0.99761037592681    0.52402313039264    3.12973374320974
C        -0.57797388080001   -0.83577788055823    3.29011964826587
C        -1.26770496718809   -1.85861369498627    4.12456790863879
C         0.74372499806967   -0.96044065733572    2.73502840600379
C         1.67519010906526   -2.09954793103130    2.94635459051864
C         1.10264399970577    0.28816973790081    2.15036267830380
C         2.45976444628934    0.61033093832356    1.63086677962455
C         0.01179580047178    1.22231140231436    2.38413976995438
C         0.15734702065716    2.67402134921463    2.22586864491743
C        -0.11802790861952    3.51867846310891    3.30067520527214
C         0.14129310046966    4.87014969581666    3.18109555060467
F        -0.11611755583468    5.67018372095351    4.23379974476288
C         0.67410868269282    5.42932849603155    2.03363435941982
C         0.92730149498530    4.56936195893642    0.98052442608384
F         1.43809237940156    5.07687867380114   -0.15830281442952
C         0.67723878976224    3.21196869324450    1.04922623828557
H        -2.42269713072385    2.09247309382871    3.38400459591672
H        -2.07887456298088    1.12914590117511    4.83199862133389
H        -3.08697066028264    0.45831616208215    3.56321377427945
H        -1.00535315375860   -2.86529021936923    3.81036101829956
H        -0.95499762349066   -1.74038472315327    5.16206635456415
H        -2.34654828189332   -1.74058813510217    4.08324248478889
H         2.21973691179419   -1.92203301924793    3.87494823057603
H         1.14716873283580   -3.04316522535532    3.04561879516416
H         2.39918984901726   -2.17513437548271    2.14095107238639
H         2.62068231941171    0.17787922276852    0.64428484402482
H         2.60162378817571    1.68478331424683    1.55988043633530
H         3.20986423100873    0.19536014896228    2.30155570520321
H        -0.48562487078208    3.13954037111369    4.23890821420899
H         0.88622848603365    6.48338322472648    1.96975266660411
H         0.87490819474610    2.59025918909898    0.19086106742578
C        -0.96877521902175    7.96180921922152   -0.43540681440171
O        -1.36151568863467    6.59375945301680   -0.36738332725704
C        -2.13447211457777    6.20392736858839    0.64578133928779
O        -2.53049372836554    6.93893337838312    1.52350988777160
C        -2.45046957636752    4.75299539021923    0.57855833562672
C        -1.86985592627098    3.92015647032769   -0.37333695410468
C        -2.19122795138675    2.57668807621423   -0.40512300738839
C        -3.11828122831775    2.05412991981999    0.49309966984419
C        -3.58592843995923    0.66842300051602    0.31560658064944
C        -4.94054299987857    0.48957917128786    0.01471591387572
C        -5.41992454558850   -0.75941156957079   -0.33447963062798
C        -4.52272032408911   -1.81325325966799   -0.39124077753082
C        -3.19955048297061   -1.58714290836100   -0.02442003881977
C        -2.22223904309625   -2.63543980612393   -0.01539351768241
N        -1.02520856975166   -2.36331616421080    0.38866539045677
C        -0.10683237749836   -3.41847477471531    0.52311675508285
C        -0.52355989742724   -4.55971448283228    1.21215717213627
C         0.33951622105448   -5.62078212528212    1.41791283839422
C        -0.16172206668922   -6.81297454438093    2.17798418937051
F         0.80798700880976   -7.65690392429669    2.54992925032636
F        -1.04921950595985   -7.54042592421234    1.46564483134697
F        -0.81271448588526   -6.45621823057047    3.30516303736824
C         1.63968131033700   -5.57323664435167    0.91620465108392
C         2.05397011553805   -4.45728347217884    0.22996716569415
C         1.21008888859489   -3.35593279978886    0.01488694891089
O         1.71968083960526   -2.34329190453112   -0.66459680549909
N        -2.74071437189090   -0.36627299165476    0.35534181114189
C        -3.72340881675396    2.89731660004310    1.42579137097883
C        -3.37025853248390    4.23024041984299    1.48513590192479
H        -1.09148072057027    8.43734501349963    0.53922377014196
H        -1.58780463777598    8.47431137038500   -1.17269817115337
H         0.07330906287999    7.97561328401087   -0.74920223645822
H        -1.18232173123000    4.33136666395049   -1.09450290037034
H        -1.75894824576401    1.94153982210052   -1.16015628047619
H        -5.58939402113363    1.35059117844756    0.03363972580551
H        -6.46106349622260   -0.90418798199384   -0.57608142087461
H        -4.83082155556962   -2.79904741349385   -0.69904098533433
H        -2.48999576320082   -3.62850088554235   -0.35951046911797
H        -1.52233801297382   -4.59373956763681    1.62161536710892
H         2.31125551101150   -6.40192549694054    1.07176032829801
H         3.05328199354280   -4.39581105050268   -0.16850656608363
H         1.09125070904552   -1.61253630542196   -0.88345064094157
H        -4.46928745200470    2.50854238072269    2.10201938996847
H        -3.81340388408778    4.89331293644086    2.21227642106501
Cl       -0.00252763200364    0.07930714122355   -1.10483945353995
