63
 energy: -88.786201267709 gnorm: 0.000706933506 xtb: 6.4.1 (afa7bdf)
Ir       -0.72454310933744   -1.41741682467862    1.68077593343604
C        -2.27426573356704    0.42812755073986    4.26558329572583
C        -1.09023548205667   -0.23748135480667    3.66068606994747
C        -0.74805700871809   -1.61721676603895    3.90826354307870
C        -1.52110611185234   -2.53029734558402    4.79938496135512
C         0.59807900124867   -1.82940055307749    3.44783436241433
C         1.48496179980787   -2.96034022567164    3.84342790989748
C         1.01888549647520   -0.63391557778994    2.78408940684204
C         2.38746042964039   -0.33018713299242    2.28251624697849
C        -0.03372737612098    0.35466602983985    2.92297027534102
C         0.14682634707681    1.79022960210133    2.56540597422842
H        -2.17238206080779    0.38252215430210    5.35049267719234
H        -3.20048809951112   -0.07738038921320    4.00114288764355
H        -2.34638597189453    1.46797980712154    3.96565005819118
H        -2.58913166119654   -2.35987861620550    4.69835719204134
H        -1.30927991602166   -3.57286706778625    4.57997261127938
H        -1.24441922758269   -2.33799199857372    5.83686006283533
H         0.91567537902680   -3.85163848781302    4.09072799240703
H         2.21515762606596   -3.19072092954526    3.07285172188687
H         2.03251552749806   -2.65762765424993    4.73769236070793
H         2.33945626241684    0.18057017119296    1.32309703480674
H         2.98255701384065   -1.23211341505585    2.17470621015619
H         2.88642420026286    0.33287361919971    2.98986909679471
H        -0.76159756792653    2.36181959929052    2.72564581187738
H         0.43703092057881    1.88890917003743    1.52102802972398
H         0.94411400740973    2.21486002242132    3.17587356125707
C         6.28482710489061   -4.42884951561925   -1.21974147989485
C         5.09150878313603   -4.99908732211473   -0.46079621560211
C         3.86914967546766   -4.08784015257432   -0.55786531039006
C         2.67208065833538   -4.64621740589534    0.21003082185181
C         1.47036654647188   -3.70938842939060    0.11901807679843
C         0.26700870154550   -4.25162975662610    0.90105931709853
N        -0.81564972940192   -3.30019252311840    0.87701906424420
C        -1.88693425436231   -3.60244268476695    0.23138464988919
C        -2.90581662726669   -2.60933072513485    0.07730661620768
C        -4.04265585386301   -2.79619936621779   -0.70638071714291
C        -4.91351842072287   -1.74808117038401   -0.92204744740972
C        -4.60668869059686   -0.50215567708642   -0.37009157117631
O        -5.30715412357074    0.62107273681021   -0.50352122565538
C        -6.51231586852137    0.61125071974781   -1.25491815515860
C        -3.43968517506040   -0.40583143137340    0.41650413866826
Br       -3.04799023331666    1.29985759532890    1.08496440352579
N        -2.63235592736962   -1.41856769503893    0.67332602913537
H         6.57138702925557   -3.46090897129678   -0.81350416228068
H         6.04282862744893   -4.29822825836287   -2.27264876255029
H         7.13993818146763   -5.09724107654629   -1.14652411505187
H         5.36388937934224   -5.13294450434754    0.58876066982612
H         4.84363204254550   -5.98281575249951   -0.86591409263868
H         3.59908420880221   -3.96106026255316   -1.60838083885478
H         4.12623883933637   -3.10108508334291   -0.16674305229663
H         2.40841421833357   -5.62361755616990   -0.19881635160004
H         2.95326902036944   -4.79260219790325    1.25510591743858
H         1.18453367334963   -3.57905785992245   -0.92556499329518
H         1.73504088955331   -2.72393920458554    0.50450593664058
H         0.55906037716801   -4.42790458171394    1.93663204180446
H        -0.05522699738116   -5.20110739638499    0.46151739814227
H        -2.01205764872541   -4.56893641767862   -0.24700591973493
H        -4.22750345209022   -3.75986120234738   -1.15181509380599
H        -5.79578558349865   -1.88529723746833   -1.52525593133623
H        -6.32007043459386    0.35357024206834   -2.29865244316048
H        -7.23630482132223   -0.08167038583423   -0.82140041876254
H        -6.89520367434926    1.62741654698938   -1.19366768910683
Cl       -0.03130512553248   -0.56010842379901   -0.44442738240530
