53
 energy: -84.334935643741 gnorm: 0.000776453889 xtb: 6.4.1 (afa7bdf)
Ir       -0.53228930135524   -0.75942131812959    1.30166469140218
C        -1.84857037546748    1.69075919725883    3.32198353345381
C        -0.71559904476767    0.80668227191623    2.92703013457863
C        -0.43688580520055   -0.48567513418570    3.50824697213001
C        -1.22203839968100   -1.11776994115655    4.60581859069214
C         0.87337302606569   -0.89395005882017    3.07093194883683
C         1.63390524781976   -2.05357578812046    3.61192514289777
C         1.34740245414481    0.07467843830344    2.14147002515463
C         2.71181117597746    0.15964469596504    1.54787945482283
C         0.36501914721509    1.14327681413365    2.06766364560897
C         0.59410563145813    2.43576910614260    1.36618741577513
H        -1.56869465388132    2.22704125342717    4.22984569629981
H        -2.74548788941109    1.11659483245695    3.53925824763561
H        -2.06591327734870    2.42959673517563    2.55519445400950
H        -2.28813947514860   -0.95506148569298    4.47370736638487
H        -1.03147740221984   -2.18527810243977    4.66429280656256
H        -0.92832433201301   -0.66942092615175    5.55574644828948
H         0.97839743240327   -2.89008413919482    3.83914482514296
H         2.40139721198632   -2.38548077076488    2.91841582549210
H         2.12212879042943   -1.74820050910874    4.53814014247056
H         2.66018858912001    0.48289714267323    0.51064791475323
H         3.22748786825282   -0.79447694861245    1.59730306482070
H         3.29634415125492    0.89749597829466    2.09829707004150
H        -0.30697637067991    3.04040556947083    1.33347719133161
H         0.93670868055821    2.26368234028994    0.34790788550918
H         1.37031733504254    2.99365503840771    1.89094500561655
O         3.87441595888419   -7.05830101777640    1.45865608338341
N         3.97844701470556   -5.96951089658583    0.92371761583725
O         5.00864422307987   -5.54976213838142    0.42892363617170
C         2.81557471262812   -5.12999190467923    0.87156180772948
C         1.62364743503176   -5.57543504362389    1.43666258017459
C         0.50253591495678   -4.77404655812192    1.37319863374046
C         0.57575171991238   -3.52278371499782    0.75472525109998
N        -0.55249032072698   -2.69766612393972    0.69005896667628
C        -1.65514237003491   -3.14116017454965    0.17106156061120
C        -2.75617437547813   -2.22825322433287    0.12783294856360
C        -3.99252587934499   -2.51111813442508   -0.45588629450173
C        -4.96504502481812   -1.52970507861571   -0.47482410677840
C        -4.67107246102003   -0.28819163410864    0.08047210176957
C        -3.42293002055459   -0.07526826658204    0.64026205391580
N        -2.48516079071846   -1.01779301430642    0.68035600142927
C         1.77881165702902   -3.07898999975916    0.20032649632451
C         2.89636044316158   -3.88493930017462    0.25097951223889
H         1.59435011619846   -6.54363193989913    1.91232893728922
H        -0.42617784858300   -5.10311978675797    1.81210743058666
H        -1.72627821513234   -4.13457421440589   -0.25628511634201
H        -4.16433753457098   -3.48353760240786   -0.88881177993469
H        -5.93000609885619   -1.71945116398173   -0.91747568149623
H        -5.39898889773858    0.50680008861020    0.08115701100733
H        -3.16795303648845    0.88113626562589    1.07040739033127
H         1.80750825066695   -2.11916668046119   -0.29104866848753
H         3.83276330876668   -3.57228444508087   -0.18464063451992
Cl       -0.09539829549770   -0.19342158782635   -0.97820423651224
