85
 energy: -121.460704667768 gnorm: 0.000809881787 xtb: 6.4.1 (afa7bdf)
Ir       -0.93268680881763   -0.69838217334680    0.60177031880437
C        -1.88194300198122    1.95407719438597    2.77830437476343
C        -0.63572056175211    1.12695210612257    2.67066795732651
C        -0.67427261808099   -0.35527623080381    2.72785302364244
C        -1.71296438330224   -0.96689751228347    3.63361494529621
C         0.74580257934910   -0.75915344254407    2.99623100058283
C         1.19431885205348   -2.16391974582397    3.21256568311362
C         1.50662719728797    0.35390654928162    3.05109144138330
C         2.97547858306147    0.42080672009678    3.28210064667880
C         0.65813673348513    1.53611120259975    2.84867645082267
C         1.22468512073056    2.91925785964295    2.89110450237205
C         0.99327926326232    3.68227835895729    1.57968726455111
C         1.70520393788953    5.03064975882361    1.62749524296024
C         1.20661468318718    5.85665426998264    2.81109798915876
C         1.41233568951585    5.09715266577279    4.11940139440345
C         0.70216793352112    3.74676187625661    4.07539472443205
H        -2.70983029431835    1.51592163945030    2.22914195035165
H        -1.71702188708170    2.96567825234453    2.42433274578593
H        -2.17332290619380    2.01414979013133    3.82805866879810
H        -1.74498611054873   -2.04921769984887    3.55326532276459
H        -1.42435222001381   -0.72282150797180    4.65684467257006
H        -2.70171606530899   -0.55661521443039    3.45851500944714
H         0.35248472447431   -2.81066955019410    3.43162129366482
H         1.70478483626776   -2.54254261894555    2.32763689648620
H         1.89095888351931   -2.20722906043711    4.04714438238358
H         3.38685077070379   -0.57450374751962    3.41826945724002
H         3.46834911680319    0.87611829316239    2.42308053272068
H         3.20569096466972    1.01962993279924    4.16303241100313
H         2.30710373606260    2.83082555627170    3.01927081942165
H        -0.07115357803401    3.85117957182643    1.42310863894725
H         1.36889674527301    3.08666437162163    0.74439793269007
H         1.53230482126145    5.57431624821649    0.69577489414513
H         2.78249969898763    4.87421650060201    1.72359248991939
H         0.14393422137534    6.07420703288768    2.68102214516107
H         1.73808342204831    6.80999071379725    2.84787451962753
H         1.03025759725944    5.68824331130677    4.95503024542288
H         2.48209356987687    4.94518423251656    4.28362911990730
H        -0.36992959250358    3.91028782029923    3.97947089517635
H         0.87918536163462    3.20230278537330    5.00478080937722
C         4.43480654602578   -6.18662040762140    0.56062308668325
S         3.00967924816438   -6.75074171988945   -0.40385187883012
O         3.33634032024518   -6.68570104342667   -1.80932580555137
O         2.56849846123715   -8.02663558758548    0.11065537872866
C         1.73926160955370   -5.52443839005591   -0.05126818908928
C         0.95139314064240   -5.66637838078709    1.07639924651226
C        -0.01336309419030   -4.71691355376324    1.35845598897334
C        -0.17867809759207   -3.61781927881662    0.51032089544252
N        -1.16678920352512   -2.64768769114899    0.76291546955586
C        -2.35243929721029   -3.01898058427955    1.16730999826276
C        -3.37291031158247   -2.02277268726560    1.22848565050164
C        -4.67297219077736   -2.27512349273663    1.63129244270506
C        -5.58091480311414   -1.22026803960800    1.57956616135199
C        -5.20434395947568   -0.04252363986521    0.98495744778484
C        -3.89845236245476    0.12668639943405    0.45363669923201
N        -3.60824854757371    1.19733694343130   -0.31364110391891
C        -4.63207048877142    1.85308708983004   -1.12337811296106
C        -4.50455414502739    3.37032884392381   -1.04317794793357
C        -3.12906725125553    3.78388958953581   -1.55522895874360
C        -2.06600925247570    3.05261718473756   -0.74161967547406
C        -2.28111345599015    1.54015805406529   -0.79396349917788
N        -2.96215689222262   -0.80757609163662    0.74758372428557
C         0.62159618923835   -3.49234594369184   -0.62609024086286
C         1.58105902335594   -4.44845816421360   -0.90414355307365
H         4.15421431402651   -6.18734007770805    1.60556180647651
H         5.24813165457320   -6.87977118381173    0.38373832042977
H         4.69804520227959   -5.19524619320305    0.21549384538018
H         1.09479542380895   -6.52613827311303    1.71087599806404
H        -0.61633877066563   -4.81645238240010    2.24696013898714
H        -2.59221572781727   -4.06215091503965    1.33174200718298
H        -4.95067356853963   -3.24672698093398    2.00010190627593
H        -6.57432668883621   -1.33120477633447    1.98329382991646
H        -5.89879019650291    0.77879560416078    0.94847933823036
H        -5.62564845368357    1.53390422701589   -0.82386825602651
H        -4.48311183761415    1.53967308723310   -2.16464338196174
H        -4.63119410324645    3.69996062661199   -0.01094729177079
H        -5.28949825138773    3.82745507057902   -1.64552973420771
H        -3.03509433320418    3.52692901719333   -2.61255934323637
H        -2.99208951578346    4.86126618200812   -1.46093265594031
H        -2.12567046073875    3.38665091490490    0.29370739727282
H        -1.06811737703245    3.27863558917481   -1.11840661132894
H        -2.16231444027262    1.18978800781025   -1.82783194682575
H        -1.49157860991240    1.06490595593163   -0.16576018494149
H         0.48894361370808   -2.64863313765831   -1.28417501345882
H         2.20295004218820   -4.38219567005443   -1.78223348505397
Cl        1.20403688380300   -0.31824721130710   -0.11831872117521
