76
 energy: -112.839592214090 gnorm: 0.000696905315 xtb: 6.4.1 (afa7bdf)
Ir       -0.71097146752847   -0.74942470637333    1.08739355336616
C        -1.20388801907389    1.90248834578510    3.31699429017361
C        -0.37197020914956    0.81535569041008    2.72731507846248
C        -0.32536746913545   -0.53075055570822    3.26401579956662
C        -1.13495010658527   -1.03562998556544    4.40855403453986
C         0.81165944208092   -1.19072850976558    2.70384445686488
C         1.37884265681440   -2.47836714416256    3.18431355846238
C         1.35991628936276   -0.33546296407393    1.69996070256242
C         2.62479760202949   -0.54870669108825    0.94083506155616
C         0.64908385157221    0.93248896010100    1.75315330096940
C         1.10487976680089    2.15603821132559    1.03063960538225
H        -0.86357691233637    2.07829095318501    4.33798991516704
H        -2.25305777151527    1.62263344984194    3.35720887560607
H        -1.10359018677099    2.82731768140769    2.75936274701133
H        -2.05255859765011   -0.46592644400664    4.51866138582194
H        -1.38705041085588   -2.08349377280744    4.26116774256637
H        -0.56043116908993   -0.95062265243501    5.33139370387193
H         0.59223872544872   -3.13862574257416    3.53753868437025
H         1.94827819591219   -2.98247959738462    2.40835398937018
H         2.04867343987066   -2.27144515833287    4.01994434197504
H         2.53394318231583   -0.15478025623004   -0.06851755743510
H         2.87568274119232   -1.60405966747767    0.88722720924714
H         3.43905709246826   -0.02222449179298    1.43937223451176
H         0.47640912529810    3.01135600126453    1.25549933019709
H         1.09961459301085    1.99071233871915   -0.04527739389137
H         2.12751721758281    2.38713115026540    1.32738264971517
C        -2.35390649357928   -6.71236173562062    3.50951389323815
O        -1.45500523887374   -6.33086509110334    2.46650290017289
C        -1.14995051510187   -5.04861413778526    2.32469495197440
O        -1.60944386541473   -4.15405912932502    3.00279049167773
C        -0.13740466048747   -4.84196339428377    1.25099724296088
C         0.84264281755119   -5.80130505513179    1.06295810964287
C         1.88376941906040   -5.60882986492550    0.14861130374875
O         2.76557184479341   -6.61937668179400    0.03951229495429
C         3.84298524026266   -6.49982679734735   -0.87340993874960
C         1.94131040604817   -4.40627237896193   -0.55874962471642
C         0.96935980679000   -3.44358521745461   -0.37160165185396
C        -0.08789679304400   -3.64306336381608    0.51152924535251
N        -1.08918656779087   -2.67320390735193    0.62190178116797
C        -2.32537388190895   -3.00722219164681    0.49395003490955
C        -3.33845920331616   -2.00839204099654    0.68096335815552
C        -4.67740481343590   -2.36149218206699    0.72419194797656
C        -5.60476652079798   -1.36903586492644    1.02295797369128
C        -5.16787018256520   -0.07798310392698    1.16233948968114
C        -3.79951365929951    0.25703637374476    0.98292226888556
N        -3.40152617117406    1.54934555276986    0.99860240292112
C        -2.41396654214515    2.05328841385663    0.05998443685098
C        -3.11809715851529    2.60945313759918   -1.18112627142419
C        -4.08027310215287    3.72870347118639   -0.79158616366993
C        -5.06632179465583    3.21785864404292    0.25709777811833
C        -4.28715361240995    2.61959874239235    1.43040298100286
N        -2.88908101266032   -0.73577193870132    0.83700117391898
H        -2.67636892284137   -5.83211169743344    4.06700898558438
H        -3.20836019910656   -7.20987253406296    3.05279777466928
H        -1.82806604907825   -7.40584254223028    4.16473335007555
H         0.82087193679504   -6.71638200123096    1.63130566878407
H         4.39385797998434   -7.43447760739564   -0.79385017666944
H         3.48196229888079   -6.37533404291829   -1.89739454203561
H         4.49745934858051   -5.66680985337711   -0.60540800914574
H         2.73377462449079   -4.21430730639949   -1.26326708357682
H         1.00167309032924   -2.52676197661521   -0.93879526513009
H        -2.61550153986235   -4.02391954695656    0.24703046811294
H        -4.97434895064518   -3.38235871659510    0.55780127519575
H        -6.65262400315030   -1.60576783474122    1.11763351548810
H        -5.88589103005713    0.69885305000793    1.35527658330426
H        -1.73055189686134    1.26008000403181   -0.23035285036857
H        -1.85233125585737    2.85277859446271    0.54368235989224
H        -3.66574079927354    1.80411440058576   -1.67507992153557
H        -2.36610050068923    2.97795881440156   -1.87902944704810
H        -4.61810041885521    4.08528025108152   -1.67113769459348
H        -3.51518062230452    4.56983365716175   -0.38388847931418
H        -5.70928340173753    2.45927213713705   -0.19292986447952
H        -5.69815586647158    4.03134453431206    0.61505601804001
H        -4.94940872697267    2.27069672335955    2.22150264682793
H        -3.64709178351399    3.39839212071665    1.85502177081110
Cl       -0.42344165902038   -0.46053932828087   -1.29286379348348
