61
 energy: -107.447771485946 gnorm: 0.000568046480 xtb: 6.4.1 (afa7bdf)
Ir       -1.03605981438081   -1.55726831833193    1.04485576096815
C        -2.04091155595385    0.73832714819797    3.43608480712297
C        -0.96701292158963   -0.06101561538018    2.78334792019130
C        -0.57748442130827   -1.38317227365445    3.21398358300858
C        -1.14661191244448   -2.09550193250495    4.39346801880171
C         0.65330551377723   -1.72411256097902    2.54388954694699
C         1.55557066813685   -2.84720467496025    2.91837493142985
C         0.94574521947473   -0.68436951995001    1.61962975321901
C         2.17269831995656   -0.53742674042624    0.79261828276697
C        -0.06126952485323    0.35217896244953    1.76888872546555
C         0.06449776906347    1.70380130305845    1.14764968274124
H        -1.70827754456310    1.00641239762763    4.43960994180305
H        -2.95988272999995    0.16532628452351    3.53328239332804
H        -2.25522812542217    1.65093833811580    2.89023507544368
H        -2.22030134966959   -1.94646615647619    4.46312351169598
H        -0.93037680033329   -3.15917809129235    4.35652262071576
H        -0.69240997027271   -1.69408811918325    5.30020516494112
H         1.00377200249265   -3.71619642005113    3.26470719706927
H         2.19241622103772   -3.14025297563285    2.08876720649791
H         2.19798959676616   -2.51039195375330    3.73290316769819
H         1.92724411128793   -0.13744686342432   -0.18863563118785
H         2.68860954417779   -1.48453888917430    0.66386832137461
H         2.85229365565655    0.16172640656166    1.28049500791028
H        -0.75592123593862    2.35623233783481    1.43137686480580
H         0.10375798494174    1.62995963877811    0.06193858216015
H         0.99705838452965    2.16033509597887    1.47919829426954
O        -1.36437583143004   -5.81208914559431    2.42799076776195
C        -0.35180084861916   -5.56942083492955    1.58780685202489
C         0.72076814528033   -6.46399535256019    1.59594451393995
C         1.81959660883007   -6.27398039991375    0.78657048559572
C         1.87195004632536   -5.15910958589656   -0.04600370688920
C         3.06183328172673   -4.88640782163004   -0.91729354964996
F         3.67564372019216   -3.73182594916754   -0.57064686550836
F         2.73709448928689   -4.74764710324036   -2.21663309463844
F         4.00099208438082   -5.83960239465112   -0.85930312241939
C         0.82762254827053   -4.24901831699941   -0.06755551196190
C        -0.29178222522273   -4.45207180950234    0.73116592740800
N        -1.33446973679326   -3.51012113213048    0.67144467659645
C        -2.53362087459775   -3.88766279653477    0.33797408619047
C        -3.52444520890976   -2.86627911153995    0.23761392187188
C        -4.85574008084384   -3.13195665207608   -0.14459181164460
C        -5.73523477474355   -2.09542490853937   -0.25938951848061
C        -5.27133613456519   -0.77394809312322   -0.06800431276660
C        -6.11309044297303    0.33952668436308   -0.23934583553728
C        -5.61222662685082    1.61057645806667   -0.11253159161398
Cl       -6.64229275727182    2.98315657486388   -0.32962906323865
C        -4.24898635709047    1.81596072839100    0.16713022618323
C        -3.42090500324391    0.74685573113508    0.36710755054155
C        -3.90257076502185   -0.57396480790617    0.28258418273374
N        -3.07495916811314   -1.62538766600694    0.50012598109014
H        -2.05883352788873   -5.13658036892159    2.40723757198149
H         0.66150681183454   -7.31335670671169    2.25646095277257
H         2.63545687887855   -6.97851374896883    0.80183499891149
H         0.85606502564941   -3.38501503686583   -0.71472799095956
H        -2.75696543725249   -4.91478997916568    0.07131900694099
H        -5.15281048908930   -4.15065016956649   -0.33195454213147
H        -6.76958121859813   -2.26231458854903   -0.51582423092061
H        -7.15025418731003    0.17924679785859   -0.48669916596837
H        -3.86956217210148    2.82387560094472    0.21318659737910
H        -2.36821497865213    0.89402244547208    0.53691378927955
Cl       -0.66476087811450   -1.16603334844449   -1.28198190595575
