84
 energy: -128.486346118098 gnorm: 0.000692110336 xtb: 6.4.1 (afa7bdf)
Ir       -0.89164924416602   -0.11591671653318    2.02890811474701
C        -1.98391581795497    1.77443718753984    4.80154239199623
C        -0.98661608550309    0.88047865989060    4.13956027338753
C        -1.16002175937630   -0.56482587074404    4.19524717751783
C        -2.29386841961365   -1.25892151308260    4.87208141255435
C         0.05445395308711   -1.17389726652716    3.78546957207514
C         0.43055274726762   -2.59891203691488    3.98807101478173
C         0.91334788150243   -0.13224902038440    3.29294337686802
C         2.34389431610599   -0.33903428203952    2.92411484842431
C         0.29997557485974    1.15402686188038    3.60707720147565
C         1.12152356358968    2.41935660981992    3.55968193543630
C         1.33152926662658    2.95476252828754    2.13415890163129
C         2.36114440757478    4.08048970614051    2.13911531155038
C         1.92822740763703    5.20989173027780    3.06938325543188
C         1.67886866479183    4.67467522718403    4.47675875925967
C         0.62820170387927    3.56591391567549    4.44546633869064
H        -2.99769921367939    1.45581227783488    4.56820718753206
H        -1.87796779435167    2.81625246192699    4.52884410466986
H        -1.85414879546912    1.68868640146928    5.88139991354594
H        -2.34512534593881   -2.30252694325407    4.57360575364809
H        -2.14720309095726   -1.22113882249687    5.95197704220729
H        -3.24456415910516   -0.78258117387806    4.64675728616523
H        -0.41580956710403   -3.26677794760003    3.84953873113116
H         1.23823837947351   -2.89857580432513    3.32671533173018
H         0.77610372319586   -2.71299294388615    5.01656769702158
H         2.47196220249422   -1.27756681314569    2.39127570123873
H         2.71445147218141    0.46331733325782    2.29519516135194
H         2.94602602987702   -0.37621437508615    3.83285199960277
H         2.10962387861555    2.12678909123414    3.94080250253585
H         0.38590124715218    3.32617845127832    1.74064480386199
H         1.66049613459094    2.15819087172975    1.46827861403256
H         2.48507322029601    4.46206645405267    1.12401921879943
H         3.32835426809453    3.69304780576963    2.46845435902484
H         1.01234144703217    5.66503783708211    2.68447894430019
H         2.69694796014187    5.98473809784339    3.09602902661778
H         1.33837576471935    5.48326425799596    5.12661796253613
H         2.61299085149416    4.28779389825100    4.89042973821158
H        -0.29210624990630    3.98860262827135    4.04179138665234
H         0.44100623077545    3.20866068643336    5.45882795769990
C        -1.20316506928916    8.28202090417039    0.68773007252606
O        -1.57047364505233    6.92023807795719    0.89167946647405
C        -2.56975850966409    6.44622030018280    0.14314698083537
O        -3.16711982288628    7.11369291785000   -0.67256460808385
C        -2.86633943666772    5.01889819738761    0.42648506914949
C        -3.87429662643906    4.38779556203168   -0.29922226511335
C        -4.18723903818503    3.06785923173975   -0.05250341401654
C        -3.48785416220859    2.33882331035524    0.91644366236443
C        -3.87409764174266    0.93209181458946    1.11193642941214
C        -5.24076494027110    0.61824072045825    1.03848248396000
C        -5.65871226464968   -0.69745261515377    0.98866652477574
C        -4.69105455933766   -1.68651369917465    0.91921841811470
C        -3.35665267567922   -1.31743079604695    1.05853256799985
C        -2.28893347175783   -2.26235379225939    0.87637173619601
N        -1.07292761107401   -1.86211288180939    1.04551697566636
C         0.00823224292393   -2.70725689118460    0.76740845723572
C         1.15351108943731   -2.17269373160426    0.19086127064389
C         2.25356812113273   -2.97669029991152   -0.12108800076547
O         3.29855502799782   -2.34325822844151   -0.68391363998388
C         4.45230047859299   -3.08712914903026   -1.03361919390506
C         2.20662735380200   -4.34049776766275    0.17703452296804
C         1.07947375951912   -4.87980770570451    0.77422272171372
C        -0.00534986849030   -4.07900488019428    1.05815684528455
F        -1.07776630433940   -4.62836728359253    1.67930704220604
N        -2.96234822275798   -0.03535719848681    1.25765647965614
C        -2.45852760565320    2.96646887164816    1.60880966200845
C        -2.15794387162103    4.29490613144866    1.37999628226981
H        -0.75243943997783    8.40507568078963   -0.29871553098692
H        -0.48643704665273    8.52011555657505    1.46846601585603
H        -2.08185794391547    8.92561745569837    0.75692718469517
H        -4.40156950016967    4.95221122117995   -1.05281604791731
H        -4.95469574611115    2.59166138049063   -0.64286758350582
H        -5.95920305305117    1.42163999998832    1.03253025911620
H        -6.70822112805125   -0.94354237168140    0.95672081969153
H        -4.94871351096742   -2.72287878060986    0.77622292564553
H        -2.52943951699930   -3.25205569131349    0.50560167264342
H         1.18152904688553   -1.12175308064973   -0.05153241182118
H         4.21782174465902   -3.86658009179111   -1.76284173394266
H         5.13432857126554   -2.36724109848309   -1.48128760190886
H         4.91924608060781   -3.53181848600721   -0.15101252465142
H         3.03744662250362   -4.98895286142205   -0.04456168064460
H         1.03603343862288   -5.92768188210364    1.02418637087086
H        -1.89338012894594    2.40605141043716    2.33282522792352
H        -1.37335168096891    4.78671697734380    1.93240774107495
Cl       -0.32933628830748    0.93775709088253   -0.02648596168807
