80
 energy: -120.623010978379 gnorm: 0.000440198321 xtb: 6.4.1 (afa7bdf)
Ir       -0.43631644409669    0.59382761938989    1.45118724812780
C        -1.15075944451273    3.48513357037580    3.39369151420676
C        -0.42583150213534    2.21865351609855    3.08563623714042
C        -0.86316460644595    0.93599844931913    3.60672179070917
C        -2.13453394467759    0.71748826543458    4.35266796940976
C         0.22084598884460    0.01724313086994    3.51163066273127
C         0.28763667906952   -1.32481165086998    4.15465964404244
C         1.29037878876268    0.68443448884163    2.81736260920731
C         2.68136803012490    0.16196239680723    2.68212111659717
C         0.90572498838012    2.06850036335952    2.61459124695921
C         1.89385693064173    3.11684855572874    2.19389296984777
C         1.42734751909133    4.09486966830421    1.11271156217299
C         2.58334279717252    5.01383663978993    0.72603109794094
C         3.08141296319890    5.78954355713350    1.94329300748383
C         3.50433987908776    4.83258695379462    3.05468605141259
C         2.35398802700245    3.90435424309938    3.43393921096957
H        -2.22557729575279    3.33281948628290    3.39935614805096
H        -0.91795678501626    4.27535985483153    2.68980120829807
H        -0.85434296820921    3.81240777742876    4.39165920327208
H        -2.38056917181322   -0.33855160622654    4.41331278058941
H        -2.02107739740034    1.10043877012250    5.36722632981237
H        -2.95987387478837    1.24750536369976    3.88429751426224
H        -0.69159100896268   -1.79353164018097    4.19691307513297
H         0.97580372392661   -1.98575284665311    3.63468707685287
H         0.64627185756777   -1.20098532560535    5.17728453569456
H         2.70666705154989   -0.91936637595837    2.77528058348898
H         3.11748562423080    0.43754999941016    1.72567345171138
H         3.30107230239502    0.58889394024665    3.47121484725323
H         2.76900265528982    2.59830504835996    1.79080606376162
H         0.60251492567409    4.70885508729104    1.47234789816124
H         1.08667524894783    3.53662845037883    0.24108922992036
H         2.25472964614925    5.71108654937501   -0.04701288334892
H         3.40236069385652    4.42213669283855    0.31026642589220
H         2.28417221478090    6.44107823760794    2.30848695411756
H         3.92352884276452    6.42467179701155    1.66072044649258
H         3.82102856624837    5.39993340873064    3.93227298792317
H         4.35725486159834    4.23976284057235    2.71630455970687
H         1.52374017130651    4.49644922553161    3.81956087079063
H         2.67510293026427    3.21566101895141    4.21763394570285
C        -4.09552611419199    8.88917699197251    2.09615075819647
O        -4.05968270679333    7.47155030178193    1.95896221263886
C        -3.06284849314067    6.95754746414187    1.23502007654510
O        -2.19840382577358    7.62830359583745    0.71489412361599
C        -3.13582446592649    5.47656325706093    1.13704563804088
C        -4.13926647203754    4.74808598475971    1.77418081768632
C        -4.20115584942288    3.37884155913088    1.61202618602330
C        -3.25415351663376    2.71213744335054    0.82963423191501
C        -3.44278099602422    1.28653503956698    0.51766423668018
C        -4.70867164780272    0.91137913179112    0.05131746220318
C        -4.94650436945907   -0.38396503350007   -0.36842011126566
C        -3.89783452593984   -1.28568287087240   -0.32684232025218
C        -2.66961757027432   -0.86205066816828    0.17419814285910
C        -1.53862166567995   -1.74215092214379    0.23221340389164
N        -0.43066518971370   -1.28894486105314    0.71267730929777
C         0.68915676298963   -2.13393899245050    0.76074282791305
C         1.89504104419694   -1.72376785065344    0.19470713567553
C         2.99156990517391   -2.56337373911601    0.21708974933403
C         2.88914317135375   -3.80714348473244    0.82427568899858
Br        4.42033664553573   -4.96663030522819    0.87507451632746
C         1.69736790040623   -4.22481859386223    1.39916670404346
C         0.59523832747151   -3.39248372614562    1.35810861742339
N        -2.44557968038281    0.40223920200024    0.61373337869944
C        -2.23406401220668    3.43847885579994    0.21949179144809
C        -2.18275116575999    4.81166917666336    0.36871620840941
H        -4.33868930499036    9.35263236079965    1.13818897244598
H        -4.86782487748473    9.10042412242936    2.83046826950368
H        -3.12609346556180    9.26193532358696    2.43143337555332
H        -4.87104333487885    5.26198998331595    2.37582073403600
H        -4.98534438260166    2.81892376181219    2.09949692976373
H        -5.48448970802922    1.65822340531562    0.00173491146476
H        -5.91831562170101   -0.67661211170398   -0.73288491747296
H        -4.01361692004783   -2.30087031627748   -0.66958287539379
H        -1.61332563257332   -2.74864459021405   -0.16545653989078
H         1.95079475052398   -0.76002635280710   -0.28569350917033
H         3.92076900245351   -2.25454805182239   -0.23345657704270
H         1.63202764542774   -5.19146260221719    1.87203181889988
H        -0.33279985303507   -3.70762448141597    1.80951487594455
H        -1.51312477017004    2.93491442686631   -0.40350747431699
H        -1.41668209574848    5.39274594745380   -0.12178261302410
Cl        0.27794861392320    1.19799969697834   -0.73940236024517
