79
 energy: -121.603062530090 gnorm: 0.000742040095 xtb: 6.4.1 (afa7bdf)
Ir       -0.27650648284182   -0.93347547922328    2.03907932784399
C        -2.32415261377861    0.71572722929627    4.28300977468590
C        -1.00499414272160    0.11108163537603    3.95618183091527
C        -0.66496444627924   -1.25963486739992    4.21442587767156
C         0.74711459040351   -1.41654868278489    3.98507716071511
C         1.58424146767609   -2.54158306006424    4.48998996078539
C         1.25128600914366   -0.17753786106915    3.47880495756203
C         0.15928119963890    0.77657031706875    3.46444607583887
C         0.32322364541696    2.22418194281994    3.27594813501124
C        -0.08066799026125    3.10218564822021    4.28042888448202
C         0.10632519078577    4.46250634486968    4.13727596751840
C         0.70020717914506    4.98761956638083    2.99081353970492
C         0.90807206278984    6.43582892967273    2.84400960753065
C         2.09341952854141    6.92802289978585    2.30089576471861
C         2.29397099419072    8.28939302783999    2.16609371793275
C         1.31195921000229    9.18142728161573    2.56536553299672
C         0.12900681144547    8.70316382299708    3.10522204936992
C        -0.07064897424974    7.34219544515657    3.24697421594608
C         1.10183160577531    4.10476196855831    1.98915778950014
C         0.92062396866620    2.74385520386581    2.12875468382665
C         2.69197939279946    0.14369204959656    3.27969924321919
C        -1.55099458640827   -2.24293362784811    4.90141007587549
H        -2.44989171424748    0.71124463469608    5.36645586561691
H        -3.14109924520466    0.13639075921807    3.85806373819878
H        -2.38867196860925    1.73773899136128    3.92431361571788
H         1.87596858493260   -2.30513452620737    5.51493458849333
H         2.49190689960773   -2.66028601294393    3.90735674123461
H         1.03564420485210   -3.47815329452474    4.51453763607386
H        -0.51242468830229    2.71657162716933    5.19067661860867
H        -0.19002829441597    5.12737345286102    4.93465353876702
H         2.87146893297819    6.24045035252735    2.00277989455438
H         3.22072180672133    8.65745286702385    1.75016812531876
H         1.46899875195462   10.24461102741103    2.45711165662248
H        -0.64083107540073    9.39475702328222    3.41594284910393
H        -1.00167180124299    6.97800545498538    3.65606215522071
H         1.54571314487439    4.49305639787958    1.08421311754187
H         1.21501873330700    2.07640730747010    1.33377147728980
H         3.12484570935809   -0.45904001261586    2.48409471904588
H         2.81600465900879    1.19139182612038    3.02172249647494
H         3.23806346329955   -0.06359929391607    4.19953528461282
H        -2.59206494623076   -2.08301559328179    4.63612108180323
H        -1.27704981991084   -3.26487076420638    4.65548788001362
H        -1.45381881362511   -2.11702245312514    5.98045786785125
C         4.79016667310681   -4.31574737989240   -2.44676350429046
O         4.14717212260778   -4.49292175224031   -1.18457914239050
C         2.81778694393288   -4.53730609761853   -1.17962154375614
O         2.12900455560716   -4.46254338449434   -2.16783609427972
C         2.29071669135799   -4.66682721836309    0.23195102771307
C         2.08079598178050   -3.31784839646320    0.95537380971738
C         0.66310724240954   -3.77892798211982    1.35300652181202
N        -0.37076301827326   -2.79169243893443    1.19880105895234
C        -1.41304813232277   -3.04978505913891    0.48718081373683
C        -2.33213968925364   -1.98231406220458    0.21781551296017
C        -3.40575894454913   -2.10938557351819   -0.66371526585202
C        -4.17214364235405   -0.99465217857448   -0.93074878987928
C        -3.81872599364049    0.23328148836895   -0.36255425491365
C        -4.68717654639163    1.32064354643517   -0.60011415598466
N        -5.46532214685394    2.14050890387215   -0.79746264657224
C        -2.68303617017501    0.30848396557878    0.47370357991011
S        -2.03080621401272    1.76236850428107    1.16553356917432
C        -2.48739366745749    3.11049828776810    0.04212835588623
N        -2.01118495476159   -0.80689288419437    0.80075958573116
C         0.78443165895492   -4.94225076695730    0.34780028880890
H         5.85672076873675   -4.37562739445450   -2.25091438110395
H         4.47875176894807   -5.09713016252873   -3.14161271540552
H         4.52886225934601   -3.34331674047558   -2.86719044809831
H         2.92839275487161   -5.34752868471930    0.79246979671459
H         2.04731556556921   -2.47616103746854    0.26818184243167
H         2.77313037099131   -3.10385573200192    1.76147350366081
H         0.63356951293108   -4.13888312114311    2.38384173931345
H        -1.58380105257290   -4.02153442398060    0.04006294571361
H        -3.62340108438273   -3.06077169066412   -1.11871342354820
H        -5.03815635403659   -1.05033207516108   -1.57235645205203
H        -2.41209730430492    2.77481295772228   -0.98650607375221
H        -3.47971426131731    3.48812387278171    0.26225657616499
H        -1.74519174666906    3.88130188356745    0.23293838652060
H         0.31065587439791   -4.74023037065903   -0.61088257332706
H         0.49560960293675   -5.92527075697135    0.70763879664770
Cl        0.81721843149329   -0.19456255143434    0.05633263143829
