72
 energy: -119.568419970771 gnorm: 0.000557749808 xtb: 6.4.1 (afa7bdf)
Ir       -0.47015350382079   -0.81111090245342    1.40772220005720
C        -1.65347040715236    0.79430431318705    4.19481289964771
C        -0.50387955467411    0.24398808485555    3.43044068726969
C        -0.00771002351766   -1.09395468939816    3.57813740096430
C         1.21342780306256   -1.19780085372064    2.82740980943577
C         2.22158974542696   -2.28510295016143    2.93650180833633
C         1.44344114395317    0.06132370898602    2.17510923570985
C         0.37289983907004    0.95766325457293    2.54101538382908
C         0.39544964476892    2.40621182758399    2.30066097521115
C         0.30090773768106    3.29008138561822    3.37468892462018
C         0.37795673838624    4.65190793402818    3.16606510774573
C         0.55293127475793    5.17333119683620    1.88521617050925
C         0.63436304491171    6.62573459590208    1.67197977752941
C         1.56066905088263    7.16423994290194    0.78095341814470
C         1.64285495830551    8.53175989105153    0.59217449515804
C         0.79616039782542    9.38315289558743    1.28326848378199
C        -0.13285892293733    8.85806603437260    2.16696902143771
C        -0.21098929600766    7.49165658757118    2.36323959512115
C         0.65133328661226    4.28494182645983    0.81538479358881
C         0.57460389879162    2.92225097533171    1.01772193228739
C         2.69283991393723    0.42198506171506    1.45569310482399
C        -0.52499182132547   -2.10420533661524    4.54341236909801
H        -1.38249989158016    0.83138645593318    5.25091503073662
H        -2.52859159793698    0.15330129274002    4.10872310546974
H        -1.90831265759290    1.79473857692246    3.86054951825428
H         2.90341781691853   -2.03215903830654    3.75011467009716
H         2.80304927872457   -2.37384124233771    2.02381191117369
H         1.76216675356790   -3.24256868122774    3.16306517430741
H         0.20144537408860    2.90987033203367    4.37897009981704
H         0.32518243731206    5.32275467765211    4.01007210546402
H         2.23531716766722    6.50939402274186    0.24898083937279
H         2.37100418285026    8.93681149289951   -0.09582531178131
H         0.85922737480974   10.45102383763805    1.13307726615036
H        -0.79854090616183    9.51754271248535    2.70475926197120
H        -0.94833815955384    7.08931555768439    3.04202034311192
H         0.76953546615346    4.66868095314668   -0.18660600264812
H         0.61855352508484    2.24918107853668    0.17477229094895
H         2.79937374422485   -0.15467276700844    0.53870579952267
H         2.69731039367391    1.47759634444076    1.19983798913819
H         3.54894686624718    0.20032357607134    2.09196112001478
H        -1.60183118550006   -2.02122670693515    4.66094243303838
H        -0.27543552754650   -3.11325442652315    4.22593499860780
H        -0.06493240286172   -1.93255394990041    5.51727431286428
C         4.31376679055680   -5.47574595587388   -0.45898701854491
O         3.33180247739461   -4.45410254451005   -0.41762309062398
C         2.19761725117091   -4.65863274007538    0.27187295169549
C         1.91015781598062   -5.80734234480037    1.01171964253757
C         0.70052178529707   -5.90302095819542    1.68336443730428
Cl        0.35934898939775   -7.33302744728844    2.60691772014204
C        -0.24375001154840   -4.89360062785103    1.63265402071906
C         0.05665124645477   -3.74293699854973    0.90059982741701
N        -0.88091385867672   -2.70067429350570    0.81150165812464
C        -2.06745551585004   -2.97300120399359    0.37524342780444
C        -2.98447015338487   -1.88654212124885    0.22859305713073
N        -2.55715322463341   -0.68759860481197    0.69580750879050
C        -3.32561732653343    0.37561035065045    0.47362096769710
Br       -2.72571508243614    2.05081080009011    1.07267595323481
C        -4.55528753810065    0.31641296025206   -0.17278149724560
C        -5.02132312958108   -0.90482779535244   -0.63334082558317
C        -4.21556099278644   -2.00862728777941   -0.42831151425432
F        -4.59065225913709   -3.21274658479692   -0.86718844119577
C         1.26513570487047   -3.61685190623870    0.23492330482656
H         3.91253094619502   -6.39176288573109   -0.89875961097766
H         4.71049066813828   -5.68322948199746    0.53779478761553
H         5.10767737737388   -5.08682801767633   -1.09299122504572
H         2.60827003347044   -6.62460341060982    1.07134194887009
H        -1.17726159183913   -4.98340920251189    2.16212744475934
H        -2.34988501298244   -3.97141488908200    0.05976392348307
H        -5.13211361493692    1.21754895152722   -0.30638116486333
H        -5.96778771516719   -0.99996611221146   -1.14174168737261
H         1.47697989796403   -2.73439416512755   -0.34707313087558
Cl       -0.03330295824510   -0.26850336555369   -0.86136592546272
