63
 energy: -104.871639154355 gnorm: 0.000414916624 xtb: 6.4.1 (afa7bdf)
Ir       -0.51671173065351   -0.38793604807363    1.38418247685554
C        -2.66593179784366    0.95502115774885    3.90753657583549
C        -1.40029104885729    0.33423222903580    3.44578155001042
C        -1.17257844375429   -1.09567975113994    3.34386933780096
C        -2.18728366948532   -2.13404712969828    3.67139448981884
C         0.25677559441815   -1.31380897521469    3.29290385552786
C         0.95344891997169   -2.59623384982876    3.56467607633001
C         0.86935430544628   -0.05280381826543    3.09880373628120
C         2.33794485433545    0.20069329620604    3.05893976277465
C        -0.16585812326732    0.97682517548110    3.22930744545295
C         0.12109349417308    2.40345809044997    3.45528422839762
C         0.99658286995187    2.74079693600408    4.48708396053808
C         1.24152568331696    4.07394981181444    4.75485747836170
F         2.08205928441136    4.38572484223078    5.76080171799844
C         0.65641537226302    5.09998756469731    4.03373612932526
C        -0.20280208741793    4.73268855533451    3.01395250854137
F        -0.79749933664877    5.69964717075070    2.28728641915668
C        -0.48149159038035    3.41257593518104    2.71129161362887
H        -2.64488029862808    2.03218359409771    3.77522777656717
H        -2.78567123143543    0.73613930039366    4.96982968955460
H        -3.52684088209662    0.53973304925722    3.39047039478270
H        -1.91939830447501   -3.09442996473377    3.24009250208128
H        -2.24145612614572   -2.25098296045755    4.75460384734401
H        -3.17225443285431   -1.84776716915975    3.31298755390974
H         1.08447437192854   -2.68310447786611    4.64419720240455
H         0.37420190250285   -3.45100595424770    3.22975281186600
H         1.93457698432176   -2.62460645964965    3.10116475399747
H         2.83407732766944   -0.51166185359507    2.40408947900599
H         2.55035384207153    1.21295823738825    2.72911163311370
H         2.75518060925217    0.06689271843953    4.05690981642779
H         1.46389944097323    1.98566067351129    5.09653096940219
H         0.85837527696555    6.13414568840558    4.25749280093716
H        -1.14885212297814    3.18549421014572    1.89701290171024
C        -4.66599822175823    2.56749814292890    1.12743792191650
S        -3.03929239226902    1.83390465882893    0.82944110572633
C        -3.26972227269789    0.32791669257933   -0.04528791156467
N        -2.23808651467980   -0.50538194083560    0.06731451008357
C        -2.29365581102772   -1.70211457730034   -0.61981618665714
C        -1.20666600825428   -2.57688441094674   -0.37836104362282
N        -0.18032490365948   -2.13005956821325    0.28489180110164
C         0.96167621540513   -2.92558213124050    0.43889026340646
C         2.21787820992512   -2.33134890959237    0.32237304847840
C         3.36071486679779   -3.09875311767138    0.45014997641934
C         3.26374023477504   -4.45835930206666    0.70749836453421
C         2.01585317439970   -5.05039380925593    0.83165540039729
C         0.86657400591642   -4.29379262305527    0.69735570756427
C        -3.22028364346118   -1.92162784720950   -1.61572923476521
C        -4.15349390292772   -0.95803389301056   -1.87630565631538
C        -4.34487395218971    0.06980232364538   -0.91755040393967
C        -5.52685602073742    0.81507414622082   -1.02271311281824
N        -6.52810208989885    1.34804668349809   -1.22343835981894
H        -5.04702050388224    3.03658506397598    0.22676639477486
H        -5.35336539454682    1.81123941366861    1.49172194825074
H        -4.50109798022731    3.32011227583437    1.89327534608316
H        -1.18954020626667   -3.54151792817924   -0.86865081692892
H         2.28192194618247   -1.27810939799730    0.09880228988966
H         4.33077172025271   -2.63780205819983    0.34646065674016
H         4.15641548060287   -5.05503698830579    0.81164164354206
H         1.93653264962100   -6.10682496116508    1.03709185058154
H        -0.10335526049671   -4.75453115618133    0.80787837443126
H         1.67643061926957    1.36688164912178   -0.28163820072488
H        -4.79412940319897   -0.99242376956313   -2.74455767350704
Cl        0.46323945122936    1.00091151574967   -0.42275049904096
