59
 energy: -77.970899806811 gnorm: 0.000337225945 xtb: 6.4.1 (afa7bdf)
Ir       -0.48387732152602   -0.93785487007928    1.05644873521146
C        -2.21410200382780    1.13771089910777    3.18963586776933
C        -1.00320552223977    0.32970879237183    2.86798552091813
C        -0.80843235999214   -1.04765048840911    3.26033566609255
C        -1.76738629728232   -1.85586186021429    4.06739297782718
C         0.57171364507331   -1.37911270265326    3.03555067656525
C         1.25310231961500   -2.58166879475332    3.59012360347365
C         1.18441908302055   -0.27597218221043    2.37338363396478
C         2.63571249142325   -0.09918748276619    2.07766960266863
C         0.20882604355993    0.80020136043341    2.30658269048845
C         0.53592934439672    2.19484050365489    1.89787659557281
H        -2.13649081669374    1.48431798636561    4.22125746670997
H        -3.12246557725424    0.54632768156178    3.10552941828339
H        -2.29320036599955    2.01338184399483    2.55056826022968
H        -2.79614792276705   -1.63457738204002    3.79719957242508
H        -1.59143674038750   -2.91996703337054    3.93801717682384
H        -1.63666829505811   -1.61745146069944    5.12370363387425
H         0.63090842969233   -3.47039678230560    3.51744069893608
H         2.20668799356394   -2.76187624444929    3.10331886814813
H         1.44824097369927   -2.40319132131680    4.64872180738441
H         2.77112215199395    0.49148684225606    1.17481509656418
H         3.13583938367157   -1.05396999692651    1.94869528547873
H         3.11139909804371    0.43168823725716    2.90310839366984
H        -0.35201279652125    2.81847816094676    1.85565531953074
H         1.01425871273220    2.20704850675244    0.92036081548886
H         1.23226477547048    2.62604473895130    2.61733693492126
C         4.53555341742919   -2.89618659882295   -0.29043265054105
C         3.25227685837752   -3.58254217246179    0.16915228063782
C         1.98931375122288   -3.07228932006418   -0.54280797500791
C         2.03961255730194   -3.44195438902757   -2.03037606199170
C         0.88087841296319   -2.90632636021122   -2.86583297110040
C         0.73908219364732   -3.65287125091269    0.16048616808346
N        -0.39321473089443   -2.76022832756587    0.12703547094946
C        -1.44776682685981   -3.10985104260452   -0.52625473088570
C        -2.52965619716768   -2.16944562458587   -0.60341675605926
C        -3.67693705219720   -2.34541743818894   -1.37663467626693
C        -4.61627537760389   -1.33229764996784   -1.42113443003565
C        -4.37495720455936   -0.16737962855344   -0.70133400800550
C        -3.21469048184069   -0.06306208135030    0.04577145309052
N        -2.31786639175375   -1.04165171257350    0.11352802895297
H         4.41948224229616   -1.81495275028867   -0.27572073806779
H         4.81229751403302   -3.19694078137990   -1.29680866781936
H         5.35636449837509   -3.16378821328861    0.37140756894174
H         3.34290161753304   -4.65954385749916    0.01367942486573
H         3.14763373860862   -3.41639226376980    1.24253743883885
H         1.94952710071721   -1.98169852610210   -0.45611821607920
H         2.96163270841284   -3.02900621798451   -2.43931528921163
H         2.09516483537109   -4.52893702643777   -2.13150119201190
H        -0.02914733219622   -3.47728641168523   -2.70999545378227
H         1.13119982421556   -2.96677739113299   -3.92281674971497
H         0.68592108441540   -1.86544301881707   -2.62234083449050
H         0.98389344843920   -3.82659512336917    1.21020267966828
H         0.47637002890589   -4.61133975025440   -0.29728404281864
H        -1.52398493940824   -4.06890941650263   -1.02742812580793
H        -3.80731265021935   -3.25766989087276   -1.93558998228303
H        -5.51342327856324   -1.43872477289476   -2.00994121722816
H        -5.07557881392637    0.65123144396386   -0.71726581955255
H        -2.99893297936945    0.83420863445369    0.60500974485848
Cl        0.21504099787974    0.15830297928806   -0.94687498913807
