64
 energy: -104.930150784063 gnorm: 0.000309641352 xtb: 6.4.1 (afa7bdf)
Ir       -0.01113563660472   -0.96477404123162    1.77410494211532
C        -2.14709648253882    1.05701431434146    3.62284108111301
C        -0.83681470986450    0.37716269430906    3.45823480937557
C        -0.55006779512436   -0.94485935883378    3.95564094229590
C        -1.50832422446198   -1.79796326058562    4.71388323753865
C         0.86609364161515   -1.14236562111632    3.90308657779343
C         1.58421109245598   -2.18196630897259    4.69063134429680
C         1.43714986910708   -0.03872774410425    3.18639185783159
C         2.88905351350014    0.26861172680975    3.06009298877911
C         0.36786946174471    0.92574425969371    2.94538927245578
C         0.57819618350463    2.32798638079821    2.54724989429417
C         0.20460285915449    3.33749772130753    3.43285893750341
C         0.43341025496537    4.65479033689658    3.08414712484401
F         0.07355984566063    5.62396613181207    3.95108783684755
C         1.01493387317153    5.01879416889576    1.88311985539487
C         1.37226903240303    3.99268434972127    1.02633741962920
F         1.93919719487677    4.30828808330423   -0.15592738250980
C         1.17239022383230    2.66076453126945    1.33368387353674
H        -2.16466255248722    2.01716337856943    3.11708544570800
H        -2.31630504672169    1.21794155184461    4.68859943803272
H        -2.96771519912112    0.44268627769309    3.25791722944559
H        -1.21992837739776   -2.84428519609123    4.67134584684473
H        -1.50885641241883   -1.49050984019064    5.76038423302439
H        -2.51991574698645   -1.68980304771981    4.33315323740179
H         1.40420395328197   -1.97409770170528    5.74677404263555
H         1.20760917849440   -3.18243308151554    4.49080417232345
H         2.65554741526278   -2.14999810189911    4.52099866709543
H         3.48136487778446   -0.63725544824008    2.97552657860177
H         3.07948883883108    0.89592047523993    2.19469119590483
H         3.21100659914871    0.81281357755890    3.94890031852988
H        -0.23695509463039    3.11270966452076    4.38979469523385
H         1.18146730937409    6.05152870847740    1.62661298628826
H         1.44506762565321    1.90016318475849    0.61947306820682
F        -3.71602748446399   -4.23367741373457    0.11721154297099
C        -3.43616567691184   -2.93237199827682    0.19296906157936
C        -4.37347395557295   -1.98644813606231   -0.18920598802841
C        -3.99816854750136   -0.65278134898040   -0.15590053555072
C        -2.72876684810849   -0.31802508070282    0.30621019564298
Br       -2.16954210473081    1.48542705547517    0.25039933177047
N        -1.86389999462753   -1.22320634359488    0.75121603312796
C        -2.17387588773316   -2.53720996572882    0.64713419383001
C        -1.06551057954617   -3.42244045775314    0.85627796999476
N         0.08375104343507   -2.90438356646564    1.14097232095517
C         1.25560966683880   -3.73543983622115    0.92009697674452
C         2.53975833926054   -3.09004312185829    1.42788019026665
C         3.74558180577030   -3.98129304258487    1.12961670288903
C         3.87250282277508   -4.23168526420369   -0.36834321634084
C         2.58975867880000   -4.86295039892366   -0.89653278400186
C         1.38927653015375   -3.97072818998136   -0.60026157938029
H        -5.35023947572628   -2.29157205125164   -0.53073501870997
H        -4.66920708996156    0.12383133738229   -0.48667910320932
H        -1.18750512207943   -4.47958303048205    0.64292663761840
H         1.10240691140975   -4.70355414855466    1.41372916093670
H         2.47244015750923   -2.93437049897226    2.49958243600609
H         2.66705969864680   -2.12682175483455    0.93169302139978
H         3.63633469561747   -4.93510749183267    1.65043916783867
H         4.65073825051891   -3.50043540734432    1.50145799831277
H         4.05047181925853   -3.28594196891261   -0.88344729777576
H         4.72096013510814   -4.88741806103380   -0.56830254730517
H         2.44571605778461   -5.84185289156443   -0.43379523787876
H         2.66223173384655   -5.01061502239759   -1.97512797030458
H         1.51796644124952   -3.00278574759039   -1.08669619388611
H         0.47980249692744   -4.43009506527593   -0.99031631614951
Cl        0.91666791659320   -0.36489585334506   -0.33211092176770
