77
 energy: -108.996938422210 gnorm: 0.000757548684 xtb: 6.4.1 (afa7bdf)
Ir       -0.15384340000826   -0.57282566108622    2.03822753133297
C        -2.48264396943993    1.01144621381287    4.02821484121498
C        -1.09597615081318    0.51198462224227    3.80570200066284
C        -0.68565539769386   -0.81400839319727    4.19804044666578
C        -1.56466011601223   -1.80488020158211    4.88227558211983
C         0.74698920269135   -0.88109841114732    4.10908306180680
C         1.59893818583315   -1.94857356152319    4.70486944419680
C         1.20422499290723    0.34377061169395    3.54390635981673
C         2.62732053658631    0.76955114198617    3.41459232124385
C         0.05237209426491    1.21857872623086    3.35255738565612
C         0.20179279496435    2.68023267134848    3.02527476907301
C        -0.70780834104392    3.20134596492192    1.90774872039263
C        -0.36330970364946    4.65770631511558    1.60611563073933
C        -0.53302346775924    5.51726648994168    2.85675701158466
C         0.33763817012794    4.98815236381661    3.99370180110238
C         0.00914372557822    3.52792320910458    4.29320712627957
H        -3.22097210712229    0.30799438863157    3.64780867916423
H        -2.64538717596071    1.98520360461566    3.58064207415150
H        -2.64266504600765    1.10134340108952    5.10380325169434
H        -1.16370293177486   -2.81097192332515    4.80169704443497
H        -1.63410279714120   -1.55046337748690    5.94074977309718
H        -2.56857943046480   -1.79411780031684    4.46703450315820
H         1.83057830423512   -1.66567021880336    5.73319881559252
H         1.08279309908171   -2.90456132933318    4.73297697388366
H         2.54027621948329   -2.05646062225519    4.17278783917476
H         3.30114015432654   -0.07609971863751    3.50783525379471
H         2.80784804679598    1.24979085248900    2.45527732503935
H         2.86110044087078    1.48608691270387    4.20245765820342
H         1.22952102583835    2.82899944990277    2.68119520008598
H        -1.75571962774032    3.15303559567910    2.20588950521074
H        -0.56364511980986    2.59231385508182    1.01387640242558
H        -1.00624919925526    5.03408605062736    0.80755659019315
H         0.66904991754956    4.72388206571275    1.25573181603540
H        -1.58091743282720    5.50918871350210    3.16680072657589
H        -0.26262636164550    6.55145919335620    2.63476467575633
H         0.18289981257240    5.59048390291983    4.89106839345709
H         1.38968237141669    5.07606115216371    3.71258585198222
H        -1.02213712511902    3.45200180961670    4.63939890484899
H         0.65870890928192    3.15752339390260    5.08823854117965
C        -4.61051494546081    2.32646318253430    0.12799186108685
O        -4.48741814698095    1.21857104668948   -0.75218183055025
C        -3.55928932170379    0.29681812380135   -0.52740226579840
C        -2.67320499762550    0.28368246879136    0.55154448322601
N        -1.76351840600089   -0.66888254547192    0.72952425532083
C        -1.68135333985367   -1.68463721126769   -0.15789385116835
C        -0.64885398056156   -2.63076625830151    0.13449436761606
N         0.12837787814556   -2.38848993615361    1.13647814353625
C         1.16538343844234   -3.35903132648505    1.42114977289490
C         2.39310445687537   -3.19110276877920    0.50851205796072
C         3.34425965331931   -2.09351501888535    0.99390249515443
C         4.45457536655329   -1.89467444573604   -0.00015724531298
C         5.62160584960583   -2.64421901020141    0.07428629072058
C         6.62404362957669   -2.48258973716550   -0.86646865078071
C         6.46939043121709   -1.56888167428220   -1.89561487103694
C         5.30878898409699   -0.81713722748149   -1.97779302186253
C         4.30819679230254   -0.98112261936402   -1.03649855992355
C        -2.53542016404089   -1.76100946197027   -1.26264032037728
C        -3.46765628241648   -0.76889675587532   -1.45094110778064
Br       -4.65043089692007   -0.77998454892337   -2.93812802822574
H        -3.67992218600585    2.89647648464033    0.16875576665058
H        -4.90224653223601    1.99758408702150    1.12762731867868
H        -5.39872146297499    2.94384241472441   -0.29708458402962
H        -2.69396348872557    1.07060814345759    1.28801109269009
H        -0.53885216422249   -3.52337552008971   -0.47198281888909
H         1.47250958765024   -3.25528135322872    2.46000150290150
H         0.75331930478764   -4.36123674938650    1.27153091391623
H         2.06138500359028   -2.95343472380977   -0.50315637452305
H         2.93083136288684   -4.13932866041568    0.47270765502008
H         3.76459157796787   -2.38025226591529    1.95917677607767
H         2.78634304707608   -1.16381234700853    1.10349376430930
H         5.75166118439506   -3.35865341784222    0.87504478955893
H         7.52888345109759   -3.06964836246367   -0.79778451936704
H         7.25137734849541   -1.44179976517351   -2.63048657978579
H         5.18568256652956   -0.10027979254367   -2.77727547940200
H         3.40568381776752   -0.39072897618310   -1.10030156738186
H        -2.44665449652943   -2.57596439058052   -1.96211671862010
Cl        0.89110097678484    0.41449646580030    0.13234025447255
