71
 energy: -115.820992840503 gnorm: 0.000750218304 xtb: 6.4.1 (afa7bdf)
Ir       -0.65372282685698   -1.22325176946214    1.30538672714577
C        -1.86067133362952    0.74761076796905    3.83900492738409
C        -0.71758816112181    0.05416408605044    3.18195398896784
C        -0.33828532167586   -1.29826737319246    3.51576867334460
C        -0.98605879138525   -2.13699614300268    4.56209301391111
C         0.92975574973376   -1.57373525465839    2.89782766527530
C         1.79064333879777   -2.74775205967463    3.20598823512878
C         1.27507201000291   -0.44707173326831    2.09579770870492
C         2.56456014004919   -0.24169206653020    1.37947871727640
C         0.24847408326135    0.57636062284207    2.27479976984503
C         0.42901840756772    1.99508782095908    1.80494720127261
C        -0.74518508129129    2.57110708098666    1.00561332265953
C        -0.38670157365831    3.96712977820999    0.50253478678191
C        -0.05082306452939    4.88804405883439    1.67313366863431
C         1.09674131546943    4.31030209686419    2.49748552541879
C         0.75081754396854    2.91047432086683    2.99806767840738
H        -2.75014841885576    0.12099057655681    3.84749625121382
H        -2.09786099971626    1.69333776470948    3.36542170057112
H        -1.59012425088927    0.94376801030256    4.87729197739282
H        -0.77969029368842   -3.19106813532379    4.40090152361430
H        -0.58478244593216   -1.85945893946421    5.53763790340128
H        -2.06102613958518   -1.98353864593650    4.58567467438546
H         1.20265721307463   -3.65303433460941    3.32993834901530
H         2.52937521735790   -2.91456988292163    2.42898141079096
H         2.31471637815593   -2.55161516049855    4.14209917836069
H         3.10824328888693   -1.17539674931328    1.27511429078983
H         2.39526839712744    0.17415474358682    0.38845279918509
H         3.18150270665850    0.45877194098514    1.94260642495790
H         1.29461004470135    2.00724872329948    1.13631090149652
H        -1.63941961908543    2.65079101185170    1.62469124728387
H        -0.96049485720284    1.91639822648803    0.15965303174820
H        -1.22318635593999    4.37882363970127   -0.06554849305796
H         0.47130147197144    3.90498407584820   -0.17031652631634
H        -0.93250133684117    5.00690253365738    2.30753015528224
H         0.22221863072433    5.87671658216807    1.29938202027470
H         1.30646283094781    4.96093600191994    3.34875596769909
H         1.99751522380172    4.26807784753257    1.88107971664925
H        -0.10897530962732    2.97027467836889    3.66532244355979
H         1.58963703722617    2.50076422126972    3.56335229865207
C         4.59348681769332   -5.27926859516404   -0.35131609732562
O         3.53323653045460   -4.34061703728571   -0.27878534514978
C         2.32720349285223   -4.74072662497109    0.15729668288653
C         2.02890961937387   -6.02812044341632    0.60667495412437
C         0.74487159393779   -6.31847952346542    1.04349597080322
Cl        0.39084954330423   -7.92068075790594    1.61046016509393
C        -0.25983226337987   -5.36832553217159    1.03874747500725
C         0.04724295709472   -4.07962636235231    0.59419305833168
N        -0.94188956505096   -3.08553018750027    0.57664525534270
C        -2.09459952093734   -3.34056621009241    0.03524064202014
C        -3.05807610962131   -2.28503963595729    0.04373786866752
C        -4.30205637335268   -2.33859377232312   -0.59403967434762
C        -5.12664524014957   -1.23479139931091   -0.55542164045093
C        -4.67534306373951   -0.09782975639355    0.12391062831335
C        -5.54126396670832    1.13290755997346    0.17194988446253
F        -5.64209014090323    1.72201143841358   -1.03193025338681
F        -5.07640939912554    2.06153374630995    1.01688742761651
F        -6.79551994089891    0.85035177056132    0.55982533349708
C        -3.43208054031212   -0.10705229881557    0.73369715945544
N        -2.64146510534481   -1.17384654865716    0.70628482505338
C         1.32699886441613   -3.76358820420186    0.16475343339972
H         4.34992945780541   -6.10006261740717   -1.02987599261369
H         5.44297874653007   -4.72455606026083   -0.74396993474320
H         4.84058574695560   -5.67419649558367    0.63713189372934
H         2.77543220455531   -6.80365238226113    0.62193218685344
H        -1.24540189430392   -5.60967802426333    1.39942358610282
H        -2.30251777066739   -4.29009054753006   -0.44289429390947
H        -4.59772690641634   -3.23417019524115   -1.11636569996497
H        -6.09373610450345   -1.23686120411067   -1.03400760990116
H        -3.06537054107988    0.76507063862887    1.25432205364667
H         1.54737746235525   -2.77648750255913   -0.20991512113662
Cl       -0.23093343877499   -0.54293719863002   -0.93712267862264
