87
 energy: -134.444867129313 gnorm: 0.000194648581 xtb: 6.4.1 (afa7bdf)
Ir       -0.68271029937287   -0.62561916624307    0.87892006877611
C        -1.15063212102041    1.79197352822700    3.28743571775629
C        -0.30000543712282    0.71299526205374    2.71134316438064
C        -0.38451089598392   -0.67772141557610    3.09080234944726
C        -1.28779351113489   -1.21180458270803    4.15115893032071
C         0.72349140363802   -1.35918319872436    2.50300831323529
C         1.19568748601924   -2.72813331377221    2.83995979079105
C         1.39392382987356   -0.44673313617846    1.62953283521445
C         2.69178152087601   -0.71798703868093    0.95146138714202
C         0.78422433086933    0.86273633326134    1.80878199329637
C         1.36630101279580    2.12929662728580    1.34073495483218
C         1.68846954306624    3.11003498019780    2.27786294751530
C         2.27927885686904    4.28252798652782    1.84811650465365
F         2.58738096843538    5.22529415799945    2.76349106210871
C         2.56709558441866    4.52792287450116    0.51757044380980
C         2.23242132993552    3.53574580714078   -0.38797889363574
F         2.48998563467928    3.74662888664778   -1.69489334866790
C         1.63937827916521    2.34663773384669   -0.00836619283325
H        -0.97739092329535    2.73668786005523    2.78102358519821
H        -0.90655292434395    1.91001331884351    4.34369343455948
H        -2.20679204568629    1.53711702193749    3.22295146780818
H        -1.44239166465757   -2.28077918195368    4.03323866457877
H        -0.83851834915093   -1.04066412922598    5.12999641399297
H        -2.25216602891328   -0.71113651757715    4.13011522712611
H         1.90590024985220   -2.65267489744152    3.66468134553426
H         0.37802103473803   -3.36902831232446    3.15711352592542
H         1.70570248780999   -3.18963800106761    1.99888216814914
H         2.67305610910949   -1.68180419416426    0.44749253474415
H         2.92299351030292    0.05302024846270    0.22321949212616
H         3.48761292642933   -0.74106266443990    1.69669150525084
H         1.50824249549077    2.96103870439718    3.32973749506197
H         3.02978642456092    5.44764775166010    0.20098286611663
H         1.36436752577116    1.61902736885662   -0.75691481714643
C         6.69197295071565   -4.72538331347422   -4.91712189643012
O         5.47399082893651   -4.01357026574357   -4.97846536139257
C         4.58172669834908   -4.15212810366716   -3.96205442547630
C         3.37748502922975   -3.45752085594207   -4.10765084180945
C         2.39666827621571   -3.54476016728213   -3.14658438399526
C         2.57846376939036   -4.32979745574444   -2.00521239925454
C         1.50366837189027   -4.46541994008353   -1.01312101459472
C         1.28690532280607   -5.67828831393752   -0.35518563374041
C         0.24681175580894   -5.81745983750165    0.54689362898977
C        -0.61316867448766   -4.76469812844711    0.79608684450054
C        -0.41153280698117   -3.54595157405658    0.14372810554297
N        -1.28461090781970   -2.47011800676016    0.36964937476093
C        -2.55531193078152   -2.67651902877825    0.42984401320400
C        -3.43675954475027   -1.57121775299004    0.67979439292511
C        -4.77253520860874   -1.78994778436912    0.95891568806299
C        -5.54875446017127   -0.68562779293153    1.31283923790275
C        -5.00977059491108    0.56103862712322    1.17323779486802
C        -3.68659873028397    0.74173791207294    0.65838844799021
N        -3.32878368821360    1.95954676036094    0.23963374680822
C        -1.99219315291390    2.32561313821873   -0.18173653987732
C        -1.75441443477841    3.80922227108296    0.07744184699914
C        -2.64710426710636    4.66152942196407   -0.82977537685829
C        -3.92527088149138    3.88761588245385   -1.15992208304318
C        -4.34059250759715    2.98617437551166   -0.00019461342239
N        -2.86136256438470   -0.33570227996567    0.61013684395729
C         0.65657209923987   -3.39555154377908   -0.73501814577981
C         3.78717650843269   -5.00454905603144   -1.86026859523844
C         4.78103670789367   -4.91976836301142   -2.81831949080246
H         7.29460707442673   -4.41239954278964   -4.05932283748468
H         7.21956089395796   -4.48099416098759   -5.83731230304488
H         6.52037012612080   -5.80508199244918   -4.87285840812131
H         3.23544425844566   -2.86205447981243   -4.99563216973433
H         1.46700803241113   -3.01792063039487   -3.29616963036280
H         1.92500832973055   -6.52149660338191   -0.56710372886608
H         0.09790349752413   -6.75884048361774    1.05275875310821
H        -1.41881633962918   -4.87411101003026    1.50540204487535
H        -2.97630194843823   -3.66091285636512    0.25679374636263
H        -5.17167110794758   -2.78908802664893    0.96531330410990
H        -6.55218983125913   -0.81407726852614    1.68588272669876
H        -5.57350069359797    1.42489543889147    1.47818757380213
H        -1.84814966808602    2.10130957793527   -1.24281924607488
H        -1.27214043833188    1.72764239484061    0.37519050972993
H        -1.97438359070241    4.02682152557430    1.12351675118260
H        -0.70295146729573    4.03749136565018   -0.09482964850167
H        -2.12431117328283    4.90913908467160   -1.75356703916675
H        -2.88893916738836    5.59962074743315   -0.32933319103137
H        -3.77512717719556    3.27167616690366   -2.04712950666555
H        -4.74173759692507    4.57668748815005   -1.37532781833227
H        -4.48716734968391    3.59076410356629    0.90122011525123
H        -5.28381434514304    2.50704652950391   -0.26662310084014
H         0.80303964393640   -2.44460357102427   -1.22161490639101
H         3.97227717740867   -5.59535335399265   -0.97560953510185
H         5.70307729827139   -5.45797026909674   -2.66561804357655
Cl       -0.37991474369785   -0.23286670509451   -1.44865651503322
