81
 energy: -130.899339842956 gnorm: 0.000617734420 xtb: 6.4.1 (afa7bdf)
Ir       -0.92590353822379   -1.15426178166010    1.24742140998950
C        -2.16239397683247    0.66519601420514    3.86060504537100
C        -0.98633427579304    0.03417900674676    3.19913452716337
C        -0.53725565486049   -1.30797719917027    3.44136219596971
C        -1.11592206441150   -2.24056618670864    4.45120920536464
C         0.72798827048631   -1.47791194017675    2.77666498955186
C         1.68529998155844   -2.59674605047971    2.99832856886650
C         1.00269996767354   -0.29581783742888    2.03778762461649
C         2.29130975558885    0.00224494498391    1.35108773816631
C        -0.06685064902000    0.65311871704867    2.29945720454465
C        -0.01039044526258    2.08081080855256    1.95313710017032
C        -0.10862463318967    3.03470449159010    2.96523648772058
C        -0.01494199552080    4.37368217626256    2.63863396653974
F        -0.10729769860083    5.28875772950669    3.62636388880222
C         0.16981508506050    4.81416430639592    1.34021867807952
C         0.26394601201465    3.84342486305967    0.35792565922144
F         0.44113990162683    4.23727140452432   -0.92038598359057
C         0.18073283408051    2.49244170548285    0.63416537991217
H        -2.43582526229987    1.59863129295754    3.37739445690394
H        -1.91577051919421    0.86734047776924    4.90354341182843
H        -3.02149864543373   -0.00170937566061    3.85212752361673
H        -0.86305993015839   -3.27134354686451    4.21885155178978
H        -0.70539188773318   -2.00495105489001    5.43377805719739
H        -2.19648839917971   -2.14131901014605    4.50492845542610
H         2.27408711052592   -2.37485185026502    3.88932561754504
H         1.17237015036112   -3.54053701406213    3.15968811711682
H         2.36533240534102   -2.70455884152584    2.15888618842874
H         2.48680838551616   -0.71392313080393    0.55572239421700
H         2.28191184864365    0.99930194291636    0.92093338503658
H         3.10639504798195   -0.06453747107492    2.07144439146533
H        -0.22974641346560    2.74694669042763    3.99624192674950
H         0.23860953568282    5.86288162011312    1.10463885511667
H         0.23346193137662    1.77494961711902   -0.17099614760383
C        -8.04786390134069    4.72758857062608    0.07718030226173
C        -7.55426694097169    3.28965544290218    0.08748777461556
O        -6.14803574539564    3.31522165451019    0.30878992899167
C        -5.46309525564251    2.16890688224971    0.37832275014564
C        -4.06734809673279    2.31319659975224    0.59413195136174
C        -3.25479982133096    1.22833382375105    0.71325562461399
C        -3.77115035190789   -0.08094425347866    0.61142445178507
N        -2.96149161229800   -1.15449950225839    0.73599626890667
C        -3.45409104895917   -2.38157475041312    0.49490425386626
C        -2.47611014577616   -3.42077309026711    0.49195083923091
N        -1.24449631948210   -3.07539142534140    0.71324625446515
C        -0.22383309404467   -4.02475297074746    0.67045492651446
C        -0.40388412879838   -5.30876818161948    1.23735608138079
C         0.59882526643039   -6.23094771605775    1.17645468338282
C         1.82457293498325   -5.94115914702240    0.53321711668386
C         2.85761542820653   -6.89078720689138    0.44871388520736
C         4.04097170974889   -6.58181666275509   -0.18693128678695
O         5.09342785831044   -7.41424904903476   -0.33527862452862
C         5.00609271985746   -8.72884135395390    0.17882509954114
C         4.21620286805164   -5.29313595509170   -0.75342983524319
C         3.22881298960011   -4.36031269920107   -0.68258066812604
C         2.00280322248283   -4.65061011565733   -0.03736664766945
C         0.97220808406580   -3.70582777724056    0.05775569763448
C        -4.81739260940698   -2.60426091522285    0.21382742609733
C        -5.67131754951883   -1.54134556235882    0.16533945463801
C        -5.16552007083719   -0.23334700492994    0.34282408207793
C        -5.98947581217385    0.89859200231010    0.24774807319557
H        -7.56010854487828    5.28529426873887   -0.71741991890496
H        -9.12145184653530    4.74397136517583   -0.08440576063540
H        -7.82329188425406    5.20665762769736    1.02604970906839
H        -7.76712538777052    2.80619000172949   -0.87394246452016
H        -8.04256187515856    2.72432753046141    0.89085350197197
H        -3.67266512615953    3.31447953692096    0.65447331388973
H        -2.19292381597005    1.35731440291263    0.83819184117286
H        -2.74584156483364   -4.43863967070899    0.23762896533927
H        -1.32757571326121   -5.53577734380417    1.74690212443295
H         0.46605625208470   -7.20409341591247    1.62438301321562
H         2.69361839060060   -7.86257043381049    0.88659779077807
H         5.95549294605337   -9.20145325275550   -0.06456622284126
H         4.87000655687654   -8.72126364942552    1.26358890433927
H         4.19105526755114   -9.28376428641803   -0.29374318457690
H         5.15540621836302   -5.08731746148616   -1.24176286884224
H         3.36737934557170   -3.38410087345386   -1.12232868468674
H         1.09056748141456   -2.73313675291544   -0.39619590642953
H        -5.15778634470488   -3.61233642521283    0.04471438570635
H        -6.72354896713773   -1.67977681996356   -0.02872569185021
H        -7.03809840057050    0.74262414674934    0.05288695373434
Cl       -0.53157179872470   -0.61259564982132   -1.03575953590176
