91
 energy: -130.830622911590 gnorm: 0.000219616662 xtb: 6.4.1 (afa7bdf)
Ir       -0.80690494383479   -0.97704087525564    1.16528536187094
C        -1.07213431207137    1.74364251943117    3.37411284776380
C        -0.29596544219439    0.63517103697939    2.74371959328059
C        -0.28482587362050   -0.70163899983916    3.30533882950524
C        -1.03445502336523   -1.10537125334097    4.53054520635531
C         0.79210719523117   -1.42773919429679    2.70363156475415
C         1.33537848985609   -2.72763739182961    3.18557306157399
C         1.32601538361854   -0.61637713364589    1.65849748587036
C         2.55114545534519   -0.92076510666666    0.86120846578888
C         0.68114823527461    0.69077537246078    1.71936782743225
C         1.23927396683740    1.88828432659251    0.99822767779974
C         0.23004703951222    2.72968669887098    0.21083321385585
C         0.95652057039872    3.85069697989343   -0.52809892903120
C         1.71596567428274    4.73798522049007    0.45506835089509
C         2.70927912952040    3.90744309540177    1.26315017578952
C         1.99496805508630    2.77823119650118    2.00053948448429
H        -2.11323590101422    1.46331365584219    3.51983566417949
H        -1.03505636987340    2.65503756908584    2.78937509383706
H        -0.64224708040321    1.94490837437346    4.35625537798397
H        -1.12009760602557   -2.18605236982158    4.60083548340846
H        -0.50109324431495   -0.74914736106516    5.41277891300350
H        -2.03072790669669   -0.67142572088721    4.54144825734308
H         0.55453039030664   -3.35767949234131    3.60260803967681
H         1.83855560452583   -3.27210053852101    2.39174240328225
H         2.06293815550451   -2.52534836529173    3.97247694177294
H         2.78080891670924   -1.98176511471720    0.88628486781659
H         2.42597439130598   -0.62316895653134   -0.17742813756861
H         3.39989374868347   -0.37427629262967    1.27304042034916
H         1.96760774709216    1.51792985304006    0.27078778624741
H        -0.50585653720016    3.17857234207966    0.87854961769550
H        -0.28694059128863    2.09196579018334   -0.50799008786966
H         0.23504541666116    4.44829782705846   -1.08877466501811
H         1.65725436869918    3.42047581492877   -1.24707298876862
H         1.00860207119577    5.22159187939345    1.13348632395070
H         2.24503731414351    5.52450306730158   -0.08671629792546
H         3.22774093277991    4.54374371620532    1.98335467037688
H         3.46013453832917    3.48761411888475    0.58972714390244
H         1.29527619647855    3.20253523800702    2.72103306973120
H         2.72166510841037    2.17821926541451    2.55136873152443
C        -7.02317880160677    5.67984651264585    0.81520825208781
C        -5.80928123873898    4.76411598164038    0.80809264315014
O        -6.28282165908548    3.42266128844852    0.87201375995548
C        -5.42000995182391    2.39838163911638    0.89449079186493
C        -4.01179061375414    2.53069872301538    0.86316460109028
C        -3.20614991466771    1.42790690423965    0.90848671645453
C        -3.74148626940257    0.12880920306939    0.97010771959323
N        -2.92503581745952   -0.94718518318023    1.01065627415085
C        -3.46206741666586   -2.17201205549044    0.90446408727750
C        -2.50899047126900   -3.22693309781047    0.77791851176271
N        -1.25501862749374   -2.90046792395124    0.78960819407388
C        -0.27570695668273   -3.88914431148182    0.62897290222277
C        -0.36502134436784   -5.09926409979205    1.31911424633214
C         0.61960812149634   -6.05298879412428    1.14006918488510
C         1.67953590197139   -5.81839194003693    0.28183646682763
C         1.78204759464014   -4.61175012170727   -0.41496748482618
C         2.90238965650381   -4.36435412295091   -1.33255531316719
C         4.17703987368127   -4.84957668478610   -1.05541783559626
C         5.23335629329021   -4.64225621943051   -1.92356747840607
C         5.03215720158118   -3.94267900750977   -3.10980844897006
O         5.98830056683815   -3.69292805115112   -4.04333045447238
C         7.29164238662751   -4.19547882459697   -3.83460603106330
C         3.75693698028158   -3.44414440067426   -3.39173830996837
C         2.71468271527125   -3.64717348419209   -2.51627753439895
C         0.79571133413930   -3.64820889984473   -0.22543328686104
C        -4.85678327578192   -2.39096931257453    0.87400730295246
C        -5.70221088117057   -1.32383666474759    0.93358190651078
C        -5.16399636357110   -0.01474968602606    0.95319031636732
C        -5.96943723387052    1.12582638559077    0.93613731416687
H        -6.69989355051052    6.71548417781547    0.76890441280412
H        -7.65749688621377    5.46680331234298   -0.04067969411506
H        -7.60103547100014    5.52723749626643    1.72247381165441
H        -5.17164979451839    4.97502386962517    1.67521728010434
H        -5.22955924835986    4.90958719405146   -0.11189036580413
H        -3.56333310268879    3.50799085130113    0.79018284385103
H        -2.13532500715327    1.52788550599482    0.84416018646170
H        -2.82849506198845   -4.24852417064989    0.60877700043890
H        -1.17969219127078   -5.27250559340592    2.00487623593677
H         0.55790543006049   -6.98901765212279    1.67339142370648
H         2.42595050300649   -6.58323577620696    0.13553358697921
H         4.36194897038031   -5.38262285515159   -0.13480283724528
H         6.20609102862882   -5.03030885479674   -1.66662040916791
H         7.86156889033397   -3.90145747154572   -4.71417022737169
H         7.28998917873748   -5.28640140140806   -3.75141368697181
H         7.74950116451731   -3.75822962748864   -2.94213686943340
H         3.61181636755041   -2.90311195936229   -4.31345903147751
H         1.73616521994876   -3.26766463327348   -2.76679092875811
H         0.83582996029729   -2.70873419722815   -0.75335919798544
H        -5.22323789206415   -3.40219027430349    0.80947276112056
H        -6.77292676606606   -1.45462862977552    0.93859937984970
H        -7.04275188930837    1.02390809167939    0.93253502021789
Cl       -0.79612490501152   -0.56442194583733   -1.18147855568487
