80
 energy: -128.672894316896 gnorm: 0.000580279055 xtb: 6.4.1 (afa7bdf)
Ir       -0.40452046132318   -0.95753415605231    1.48692847542062
C        -1.70920300050411    0.68970732820409    4.18924073253153
C        -0.52903793675687    0.07927901877541    3.51788994312550
C        -0.12007444970811   -1.28879738511278    3.66843543806112
C         1.16454283003753   -1.44004367890619    3.03138154216686
C         2.08280937187747   -2.60149101364382    3.18721180699810
C         1.49769505489352   -0.20528953541523    2.40702383379498
C         0.43889285143366    0.74666093047861    2.70353787457467
C         0.54605746534107    2.19774951328875    2.48674065807122
C         0.47219752065202    3.06128520026612    3.57916009816753
C         0.64496303778632    4.42007521215460    3.40871188552629
C         0.89713089579687    4.95790353096365    2.14743540404964
C         1.11305959390941    6.40200815410151    1.97391425281519
C         2.11222360767240    6.86734924641360    1.12115344227239
C         2.32765491591662    8.22413233085197    0.96383647020736
C         1.54445209296117    9.13825941632941    1.64969449965813
C         0.54605257274338    8.68667719815103    2.49759315102634
C         0.33394971037337    7.33015165147017    2.66198672591285
C         0.95327202437844    4.09190670437015    1.05619434022599
C         0.78105580512008    2.73212853795385    1.22045113504554
C         2.81585187520526    0.12223176031155    1.79820923098658
C        -0.76214092886456   -2.28221080404793    4.57511277476984
H        -1.50050282558465    0.77595781876156    5.25617832787012
H        -2.59372902168690    0.06671798876115    4.07873923463295
H        -1.92013982924098    1.67853018107256    3.79370197134033
H         2.67161355020435   -2.45380434325711    4.09331150636250
H         2.76572737913761   -2.67582793391295    2.34621389141506
H         1.53757769343163   -3.53578911935620    3.28613809467531
H         0.31507949463550    2.66272034235460    4.56902982370206
H         0.61365244481260    5.07228868150322    4.26837247929814
H         2.73883050443613    6.16152900768835    0.59557379088815
H         3.11064986595266    8.57116521290232    0.30517193121939
H         1.71186026688977   10.19799702298350    1.52412521037764
H        -0.06914966973908    9.39630997731456    3.03184034766631
H        -0.45518216008684    6.98776748129317    3.31532543016586
H         1.12084740519829    4.49091100641405    0.06716891099701
H         0.80563139916558    2.07921601131405    0.36074016086310
H         3.10791004932475   -0.62395267832020    1.06322840626593
H         2.78861553135782    1.09557985569573    1.31794185561887
H         3.57283471858845    0.14049941634004    2.58302204947854
H        -1.84057000133584   -2.15275362632420    4.59850530209229
H        -0.53011788295426   -3.29918132774042    4.27162127923524
H        -0.38320666800856   -2.13676893705305    5.58733224685363
C         4.81931811380164   -6.40772171228272    1.57891957070473
S         3.64269527318850   -6.87005858011177    0.28155831003733
O         3.09367820566230   -8.17049476614704    0.58448486846862
O         4.27613904413102   -6.70085238545012   -1.00427278836520
C         2.32532064552663   -5.64951242666012    0.43159260183148
C         1.16198776074410   -5.98550008100225    1.09885636153218
C         0.14433510703685   -5.05456738199287    1.20761090060833
C         0.31302642576272   -3.78216670991459    0.65747626363994
N        -0.70542900922026   -2.82416441900828    0.75245436452405
C        -1.91516198782567   -3.12679939816850    0.40355812424879
C        -2.89270768829314   -2.08555572548261    0.47035034326185
C        -4.24019163990547   -2.27737271856140    0.10349065139791
C        -5.10089646196721   -1.21873501443559    0.15214513230623
C        -4.60587873029230    0.05942878683858    0.49766744627649
C        -5.42820487315159    1.20052535752242    0.49909646616504
C        -4.89660991450473    2.43388944546612    0.78066380977180
Cl       -5.89994120772462    3.84158546439375    0.77124491873361
C        -3.52426384530338    2.57506199938253    1.05652581564829
C        -2.71223680198024    1.47605208557005    1.08782181872514
C        -3.22393460679949    0.18806862657804    0.83163613891701
N        -2.41486923514938   -0.89715988184940    0.87569631898079
C         1.49920609400261   -3.44794162150239    0.00148166813088
C         2.50104660508952   -4.39298263756385   -0.12109648691658
H         5.61588239318237   -7.14176772524428    1.57233837115972
H         4.29891921821622   -6.42178091523955    2.52710827543414
H         5.20757180187023   -5.42541963162321    1.34506066096116
H         1.06600344406274   -6.97926722959227    1.50635205881395
H        -0.76762976662668   -5.29931880059845    1.73019510350314
H        -2.16767914136865   -4.10553444056351    0.01164251064524
H        -4.56549411408543   -3.25878979946942   -0.20031255437084
H        -6.14543258475944   -1.33407614211497   -0.09143954588317
H        -6.47432493493848    1.09422793543080    0.26037936492315
H        -3.11922024808411    3.55729076652382    1.23713073698323
H        -1.65452825630691    1.59221102165064    1.26080556163073
H         1.59929418193193   -2.46428066576227   -0.43201874534094
H         3.41112460759359   -4.17812644634392   -0.65795182029050
Cl        0.09402943305003   -0.25135343196266   -0.73407856327846
