67
 energy: -110.877043061835 gnorm: 0.000732489883 xtb: 6.4.1 (afa7bdf)
Ir       -0.79482833834474   -1.01664264295750    1.24975822329231
C        -2.18352673573579    0.89494503645815    3.76622544079388
C        -0.99410706500081    0.20383284411635    3.19778749552682
C        -0.64022356862480   -1.16469752596733    3.47036787460137
C        -1.36892659404398   -2.05892330082632    4.41519858881771
C         0.67549030748713   -1.39636748945875    2.93757387304607
C         1.54760135802084   -2.55910731967599    3.25765428379581
C         1.06573919274943   -0.23716923398475    2.20922247272341
C         2.42119533453783    0.01596455156562    1.64658818713825
C         0.02603173107758    0.76959514986262    2.38615056989096
C         0.19091590738155    2.19614280862113    2.06095301051762
C         0.15275672395636    3.13098512924856    3.09476346777855
C         0.36349821626769    4.46456474616047    2.80199757749195
F         0.33209533445256    5.36157055733587    3.80959499759282
C         0.60640951133290    4.91675989986352    1.51725061954755
C         0.63107122351040    3.96489517845973    0.51278257719711
F         0.85765849845303    4.37148856980404   -0.75314548861899
C         0.43084324358267    2.61929930369302    0.75545893396449
H        -2.31664838300878    1.88064961826528    3.33077649985833
H        -2.04617722443840    1.00172201502415    4.84266128805215
H        -3.08940790738151    0.31372928397137    3.60974853619403
H        -1.14796825622760   -3.10343044012477    4.21505185128555
H        -1.05490835289537   -1.83603267021995    5.43546988213324
H        -2.44223890272541   -1.90259946788643    4.35114978245457
H         2.06863740334290   -2.34846329716645    4.19257507094993
H         0.97099169289182   -3.47029641926636    3.38993468681976
H         2.29230088483958   -2.72064277726179    2.48412358978255
H         2.81712007288766   -0.87355037744953    1.16392251092829
H         2.40050504813303    0.82816725186695    0.92634854009956
H         3.09590267380735    0.29042019669264    2.45823957123670
H        -0.01109068286005    2.82916585227898    4.11611305000499
H         0.76891009861102    5.96088570003792    1.30852521581407
H         0.43848330926359    1.91791799163602   -0.06534923374406
C         3.36713076460357   -6.55528826860024    0.52546579773965
C         2.22007561062010   -5.60026580128151    0.53780039591657
C         2.34434960657655   -4.31343122754620    0.01992601579120
C         1.29197588548105   -3.42129975292803    0.06473467438670
C         0.06813446196628   -3.81487677363398    0.60843934671572
N        -0.99726659192218   -2.91100367042651    0.62258583510914
C        -2.19142275638183   -3.30004543567371    0.29671773142152
C        -3.21546065594229   -2.30364907219547    0.27527131971509
C        -4.54525222957082   -2.57198651240671   -0.10796674998670
C        -5.44048262754215   -1.54335580356585   -0.16835945434668
C        -4.99883808475510   -0.22489165461226    0.08740958355450
C        -5.85693156488066    0.88339071302530   -0.03233088731440
C        -5.37558617188777    2.15214129128369    0.16774426930853
Cl       -6.42134466878491    3.52087203081873    0.00764924962571
C        -4.02111160377085    2.36245051441885    0.48341702747739
C        -3.17550672189748    1.29851229478325    0.63057395658248
C        -3.63518943088151   -0.02201375111694    0.45450974585528
N        -2.79285129683730   -1.07187125746881    0.60231146746947
C        -0.07172315467244   -5.10723653895313    1.12302107696568
C         0.99724666595661   -5.97705895750030    1.09329010882936
H         3.75307256722173   -6.68435583009349    1.53654513568373
H         4.17379499728580   -6.19379582221074   -0.10603289027775
H         3.04872880563582   -7.53301341500232    0.16965967855996
H         3.27918177268914   -4.00774306819555   -0.42456382556730
H         1.38289466616289   -2.43181072854913   -0.35687965784078
H        -2.39163750740256   -4.31572448127000   -0.02214581125559
H        -4.82864939452875   -3.58539270066763   -0.33969827112265
H        -6.47270934745490   -1.71321666488242   -0.43196804734071
H        -6.88947719999188    0.72203717053550   -0.29744981789113
H        -3.65889486088433    3.37058912825456    0.60120606977924
H        -2.12948969588224    1.46193079864754    0.83430843521018
H        -1.00466909678292   -5.40821156389609    1.57408136514776
H         0.88784692254514   -6.96800471875978    1.50697914246846
Cl       -0.29574881938550   -0.36019519305935   -0.98788156333079
