67
 energy: -111.332462930286 gnorm: 0.000494509719 xtb: 6.4.1 (afa7bdf)
Ir       -0.80379955824720   -1.22438467337337    1.01880356350944
C        -2.29993661310403    0.56923987229798    3.58592146311673
C        -1.08439471843172   -0.04211016136313    2.99175555225166
C        -0.65540793861178   -1.38721597143789    3.25901960886480
C        -1.32418094325595   -2.32423838713554    4.20560200772198
C         0.65486593397168   -1.55260829249312    2.69408602192344
C         1.62931745016934   -2.62708324558267    3.02951713569424
C         0.99223520952880   -0.34440063195943    1.99460501611182
C         2.33727096521366   -0.04732534782718    1.43606085643375
C        -0.09220204609919    0.59491399515633    2.18280059126085
C         0.00240685159479    2.02761648519603    1.86551643349433
C        -0.17604437121219    2.96954157854203    2.87672739907724
C        -0.03340216271770    4.31109649897958    2.57667038414809
F        -0.20514924925200    5.21466908706224    3.56320433124217
C         0.28008250875762    4.76374722841566    1.30798796060811
C         0.45364101575444    3.80317910999995    0.32702337729151
F         0.75756248220410    4.20609390326465   -0.92414586840959
C         0.32618073612618    2.45121418808681    0.57804939043989
H        -2.47906295102705    1.56473906973520    3.19437134350937
H        -2.16246775753420    0.63199910032650    4.66628682111161
H        -3.17919403524542   -0.04690263176888    3.40948481810931
H        -1.08160208021738   -3.35783837243051    3.97710518702524
H        -0.98041300031139   -2.11060720896476    5.21833119537327
H        -2.40280527986743   -2.20059731860087    4.18368202911420
H         2.22225675414836   -2.28218828503212    3.87887035972383
H         1.13582483061093   -3.54757692150469    3.32706820468361
H         2.31705280580230   -2.81434867921752    2.20903738137946
H         2.59856736827289   -0.75213078603840    0.64951715651931
H         2.37819873010138    0.95709663232917    1.02646573562616
H         3.07960051673398   -0.13888776826597    2.22911387297539
H        -0.39741522962440    2.67558874038811    3.88911645880282
H         0.38387024054165    5.81408296100546    1.09356228533474
H         0.44223425322495    1.74298030851038   -0.22730252207449
F        -4.68814048717713   -3.74736405136504   -1.49996399334965
C        -4.36317973132239   -2.52712776633578   -1.06880835930514
C        -5.18823780808973   -1.44802226729931   -1.32518427478563
C        -4.76405346382313   -0.20465224659132   -0.88453927727442
C        -3.56159643561990   -0.10044398776995   -0.19418855561793
Br       -2.99458756891577    1.61400698207749    0.33660203543499
N        -2.79033095979948   -1.14358587505265    0.09986110861525
C        -3.16460180860020   -2.36006518621750   -0.36458078299282
C        -2.21629445123348   -3.41108525225291   -0.16202659242751
N        -1.08248948296211   -3.12009546634664    0.38131022795117
C        -0.07510393706188   -4.15317259490527    0.39349138812377
C         0.66563231583423   -4.16408194286636   -0.95506944235576
C         1.80356071079052   -5.18998258593135   -0.95184678992849
C         2.40662410049097   -5.27869103804488   -2.32733477939638
C         3.44247322351822   -4.43377266264733   -2.70524443965900
C         3.97459586886792   -4.49707389771054   -3.98112457568716
C         3.47368400031968   -5.40549053149697   -4.89874110210347
C         2.43902885908902   -6.25039312513205   -4.53261630831135
C         1.90846725496902   -6.18398836522292   -3.25633451724454
H        -6.11442265853898   -1.57614591224087   -1.86293311581429
H        -5.35109394531898    0.68020748413963   -1.07091151660523
H        -2.44543745020616   -4.41133130140357   -0.51531147993506
H         0.64005959561385   -3.95908913514043    1.18880330879868
H        -0.54200104355846   -5.12902267200349    0.55627640247419
H         1.06347262646002   -3.16928051852910   -1.15780508804153
H        -0.03962480617197   -4.40644336561259   -1.75186115213627
H         1.41404172817771   -6.16683150035931   -0.66083397677411
H         2.56707534325423   -4.89389000041886   -0.23194334503211
H         3.84280719968742   -3.72423359291000   -1.99596590129498
H         4.78313933556869   -3.83760195017729   -4.26160523352459
H         3.88928107863303   -5.45650007828938   -5.89465821722860
H         2.04672008257445   -6.96348486548626   -5.24337892899619
H         1.10356655058676   -6.84952368892699   -2.97855167501775
Cl       -0.13223755403340   -0.65014511782880   -1.18568160253287
