76
 energy: -111.277280144901 gnorm: 0.000429617289 xtb: 6.4.1 (afa7bdf)
Ir       -0.47784187255258   -0.12000409450016    1.46666215342070
C        -2.21808723093878    1.95796264577753    3.65525245775826
C        -1.01992316654349    1.14939173177824    3.30247019459150
C        -0.85319588206023   -0.24234325591802    3.67388210176774
C         0.50890680028005   -0.59612737956749    3.47750310655787
C         1.13656755421378   -1.82081131504645    4.04319166253147
C         1.15344474586759    0.50099217887567    2.79901057787603
C         0.20856914834065    1.61621007072047    2.77561155079127
C         0.56745205457794    3.01214139738517    2.49374271186388
C         0.24509860134379    4.00094619188454    3.42497246558859
C         0.61725925567698    5.31252109525819    3.21242161312297
C         1.32354439747684    5.68033350089128    2.06837475336885
C         1.72876424913659    7.07698446036429    1.85313581678983
C         3.00269077162936    7.37839128813850    1.37586825067470
C         3.38966271435251    8.69242219711851    1.18667389618148
C         2.50750386768086    9.72491632899799    1.46134384113642
C         1.23644892794412    9.43577708577422    1.93070899989461
C         0.85049404428204    8.12283525402015    2.12920491427076
C         1.64355261533171    4.69038777047886    1.14069135538928
C         1.27543412200650    3.37684198211878    1.34927143415061
C         2.61372564732857    0.65473186840586    2.53555904935376
C        -1.85408784573354   -1.05417938726165    4.42185532161241
H        -2.16856540469109    2.20165753947048    4.71789714603889
H        -3.13961849750884    1.40245990742347    3.49895528694147
H        -2.25939724075978    2.88655256485737    3.09291639486431
H         1.05882583854604   -1.76875854236310    5.13003020614901
H         2.18611991014530   -1.89271068596230    3.77941537510786
H         0.62400343104849   -2.72423516630881    3.72153131550393
H        -0.26528162216677    3.73720427409200    4.33742541925073
H         0.37926889492978    6.06008466228243    3.95433824991470
H         3.70093800807263    6.57912829021537    1.17378150989453
H         4.38343932627723    8.91373538963729    0.82495304518320
H         2.80930924540912   10.75090036530523    1.31016752357447
H         0.54392935456912   10.23785388440179    2.14191693412645
H        -0.14717894020144    7.90543002455553    2.48200247279172
H         2.17267458530494    4.95821471885814    0.23850422312042
H         1.50703266179899    2.63318376494405    0.60395218120943
H         2.81485895446376    0.72454982129965    1.46837680294958
H         2.96551608977418    1.57898793881283    2.99240108897498
H         3.18017671736440   -0.17819813594662    2.94166150192657
H        -2.86950631744896   -0.81106684906191    4.11902645703992
H        -1.68349789601614   -2.11730431745324    4.27585969151371
H        -1.76420257237507   -0.84019017587296    5.48766983616770
C         4.44598128364876   -3.83199648421999    2.28411760963518
C         4.39769887838074   -3.76264687840327    0.96696569902990
C         3.23725407972525   -3.33451811487126    0.11990622454060
C         2.02121362161422   -2.82559227473389    0.89212621788224
C         0.91074681922615   -2.45069181328624   -0.09025870423904
N        -0.28194063689121   -1.91953615307308    0.52035781657169
C        -1.38270694606011   -2.56444578357671    0.38301186836931
C        -2.62950844573489   -1.93276392665396    0.73508613826250
C        -3.80834809396971   -2.64582106428828    0.89436490008884
C        -4.96682496377140   -1.95504538892669    1.21815187783495
C        -4.92016720585901   -0.56896154570433    1.24510131654784
C        -6.09509027371387    0.17110025238429    1.51374452373311
N        -7.06436864758789    0.73431789429577    1.75330690864367
C        -3.69884845633172    0.10647038036961    0.97366995817915
S        -3.83971607898677    1.82960522401455    0.79690023319312
C        -2.34857772410960    2.35639314177568   -0.07586894369039
N        -2.55809533997595   -0.57715008226005    0.83425120378538
H         5.33507150603619   -4.16167110151777    2.79401096483749
H         3.61243708953302   -3.57695246536911    2.91413118645156
H         5.27021157843198   -4.04443358787333    0.39025366084861
H         3.58695260235024   -2.55555473798365   -0.56351807036251
H         2.94896231368608   -4.18841593928570   -0.50121621008742
H         1.66343963733614   -3.60587071665185    1.56404704408263
H         2.30345475729388   -1.94865616351065    1.46949177982332
H         1.28455601273668   -1.66116399631233   -0.75147674448460
H         0.65395792614579   -3.32457455228799   -0.69754311985603
H        -1.41479669691044   -3.55090074048310   -0.07056451143092
H        -3.81008149555649   -3.71838418307749    0.79613403601694
H        -5.89419934449452   -2.47018819052759    1.41367746399735
H        -1.50841563466297    2.46064429554329    0.60329772545559
H        -2.12416539531094    1.65128612355165   -0.86857402416907
H        -2.59757781212546    3.32610676500391   -0.49767314525748
Cl        0.30682003970462    0.68446391908812   -0.63809177518503
