72
 energy: -108.754567065743 gnorm: 0.000613059595 xtb: 6.4.1 (afa7bdf)
Ir       -0.76231891988202   -0.82407155668654    1.40371936563383
C        -2.11416061116084    1.46012963787123    3.70163407653143
C        -1.01251877811110    0.57816406281080    3.21912807159578
C        -0.91144504111284   -0.80789239221519    3.62397904139725
C        -1.87674557298818   -1.49840098353530    4.52586171404856
C         0.39877109175379   -1.27708173971888    3.28504710298390
C         1.00803970883115   -2.54464687200474    3.77155136625132
C         1.04696254562092   -0.24748721439673    2.53667165099424
C         2.47541689227039   -0.25317503902141    2.10539225698052
C         0.18580385945501    0.92799188064808    2.53804486226307
C         0.69114969419966    2.28907213901676    2.14500999554734
C        -0.19214849402796    3.08281503335603    1.17698839693745
C         0.50041758813611    4.39164261787511    0.80516565069016
C         0.77869026985600    5.22411242283764    2.05424192059783
C         1.63225817173060    4.43447670790927    3.04314377029915
C         0.95165449964517    3.11995006086336    3.41452244988367
H        -3.08852334013217    1.01318913599549    3.51749709597526
H        -2.08733437203743    2.44074275405792    3.24213477713346
H        -2.00343256561120    1.57970667963515    4.78024020380386
H        -1.78903144904575   -2.57775203866083    4.44491496726884
H        -1.66289154245593   -1.21853969370661    5.55806820647393
H        -2.89952384897062   -1.20794406732231    4.30353264523632
H         0.27654266250264   -3.34579307619990    3.83230285945776
H         1.83352211906770   -2.86437015289132    3.14262354238498
H         1.39628547768721   -2.37020538316981    4.77598787837020
H         2.86972535022926   -1.26439543318767    2.07302862307231
H         2.58711702289087    0.19472744038153    1.12094061497629
H         3.07051235153114    0.32468128522400    2.81275462237472
H         1.65192581197442    2.14604354482090    1.64208011036082
H        -1.15348328327738    3.32040306712470    1.63300728786058
H        -0.36383895568915    2.49065582166346    0.27703433187507
H        -0.12899259646162    4.95585611734929    0.11416145880457
H         1.44120273813842    4.17653557619197    0.29347920533191
H        -0.16698711335229    5.49940338993195    2.52748280169337
H         1.29131791395115    6.14759832086863    1.77845301186299
H         1.79918675704230    5.02661067243555    3.94503618693624
H         2.60747269591398    4.23034483984091    2.59535002669065
H         0.00932871511790    3.33238340568944    3.91924996575017
H         1.58329649055817    2.55609362317695    4.10332976150079
O         4.96608340182941   -5.30953502675249    0.15361331617883
N         3.95962609542564   -5.80309695528320    0.62776453123656
O         3.90448159223136   -6.92936536244624    1.08610936493860
C         2.76402439460369   -5.00868522686342    0.64673576823313
C         2.78424602373414   -3.72374936611812    0.10804587598560
C         1.63425837089566   -2.96300765054253    0.12514122232037
C         0.45968435258300   -3.48836589314545    0.66962217832585
N        -0.70268028184529   -2.71038029048516    0.66937568443582
C        -1.81368141293585   -3.20955164496324    0.22589373139043
C        -2.95268441661581   -2.34754957825762    0.19682147382251
C        -4.21097865646837   -2.76739691210620   -0.27924087927402
C        -5.23742121348885   -1.86750237741111   -0.32873114490654
C        -4.99306521972819   -0.52269001719608    0.02157311832594
C        -5.98121889625863    0.47607456059273   -0.07948142002951
C        -5.68553471412372    1.78289902351124    0.20263878789636
C        -4.38279125817930    2.14456398473962    0.58303698474408
C        -3.40758591044160    1.19437156788461    0.72126178477312
C        -3.68582377494628   -0.16115549166343    0.46763845417467
N        -2.71458277840471   -1.09436654969434    0.61578213937880
C         0.44906332715957   -4.77875146163825    1.20893680363476
C         1.60102177367553   -5.53719287442881    1.20021710196048
H         3.69948525555837   -3.34290987123318   -0.31782929372325
H         1.61661313561305   -1.97288178851365   -0.30298842071622
H        -1.86564862283704   -4.21392717132999   -0.17891500189175
H        -4.33976726934161   -3.79215946325093   -0.58664086123856
H        -6.22299038038962   -2.15913565416141   -0.65697833447101
H        -6.97036866602137    0.19100914453416   -0.40307878458659
H        -6.44492163633671    2.54406407847774    0.11598438169469
H        -4.15430629026944    3.18376583699404    0.76048248454576
H        -2.39503599978440    1.46206435343322    0.97433761685764
H        -0.45457957813359   -5.17314020347485    1.64672095855814
H         1.61871362080277   -6.53445897847795    1.61164628513513
Cl       -0.15909631135909   -0.05353733563257   -0.76819578551093
