82
 energy: -124.558868090168 gnorm: 0.000659173597 xtb: 6.4.1 (afa7bdf)
Ir       -0.76381421440235   -0.86440204132971    1.41357962325727
C        -2.01436005455692    0.91926182284986    4.04727587410301
C        -0.84632617433761    0.26036256702560    3.39711283411677
C        -0.46065181410585   -1.10883997063777    3.60127916806985
C         0.82345648011630   -1.30459473424943    2.97931352285805
C         1.71706459744750   -2.47604984962885    3.19735903225790
C         1.16752855063800   -0.10789519715102    2.29532757948371
C         0.12762776927524    0.87460075165514    2.55530640024855
C         0.24600396021776    2.31410080541183    2.27261939161567
C         0.21051158488423    3.22380361681452    3.32860750244841
C         0.35241903291931    4.57643367178665    3.09303866571321
C         0.53061583438683    5.06414002822047    1.79915139115855
C         0.68011759586770    6.50610976865470    1.55219292073631
C         1.59788474996959    6.97403398031213    0.61335880091422
C         1.74339761263764    8.33001222875049    0.38550264395822
C         0.97090296331794    9.24179165918367    1.08667540457906
C         0.05286904783126    8.78820456434392    2.01979753490807
C        -0.08953966299406    7.43267052853601    2.25337958334088
C         0.56515892364998    4.15034921083036    0.74678894937361
C         0.42717795853030    2.79614533884447    0.97738304536579
C         2.48579354362979    0.18182054700919    1.66569099771824
C        -1.11064860673000   -2.05325999424831    4.55541900295493
H        -1.81125264527216    1.02676596488226    5.11329647382385
H        -2.91615654848182    0.31948419679076    3.94358407683583
H        -2.19466626971682    1.90348433732681    3.62489640399823
H         2.26838737279527   -2.32214452467970    4.12592536059598
H         2.43579931882191   -2.58282500684710    2.39046575030483
H         1.15254842317363   -3.40023274007987    3.28752468391443
H         0.09870615734568    2.86589333014434    4.34043459361960
H         0.34797512052463    5.26395229285319    3.92550945319190
H         2.21631788398165    6.27185790696631    0.07352519151196
H         2.46325732401205    8.67865081149940   -0.34109440892864
H         1.08432658053475   10.30066408861397    0.90607055665622
H        -0.55459980423115    9.49489188341872    2.56678318222124
H        -0.81843293833192    7.08883564905338    2.97280723941572
H         0.68148491826534    4.50591523162421   -0.26589565458495
H         0.43073211925193    2.10749930037193    0.14504812972870
H         2.84263676166565   -0.67210406882402    1.09509984142376
H         2.42361567653932    1.04427667734291    1.00880911153267
H         3.21521432946211    0.39387358133582    2.44871569263035
H        -2.18278338116327   -1.88488069250832    4.60498405929506
H        -0.92438392636102   -3.08578095817238    4.27186261559729
H        -0.69641994950872   -1.89706539719561    5.55225487957246
C         2.78399917850348   -7.84063951565325    0.91981785064849
O         2.90585180892182   -6.52744157670030    0.40743151006731
C         1.87883934484342   -5.67038165158370    0.55159147671614
C         0.68235833910291   -5.94954095744574    1.20064631588250
C        -0.32313096173451   -5.00203031642997    1.27965784159841
C        -0.12849783335342   -3.73605843213545    0.73617827894376
N        -1.11891555240514   -2.75962630223340    0.79855479806933
C        -2.35697028700933   -3.06528940006399    0.55932042006086
C        -3.30782123969057   -1.99881119433286    0.58604694298706
C        -4.67200841903492   -2.18170428414927    0.28099654163229
C        -5.50017291556237   -1.09666390008838    0.26290340332801
C        -4.96381443056570    0.18901175109783    0.49224146846582
C        -5.75318773052455    1.35400270299870    0.43333701636345
C        -5.19130660166163    2.58951578832269    0.61092685662150
C        -3.81146789285256    2.70636064708015    0.83991288746802
C        -3.01968800280089    1.59325225843472    0.92641734286454
C        -3.57015854693930    0.30688772082570    0.77485226864432
N        -2.78663146655462   -0.79587459181014    0.87207676149505
C         1.08421516961770   -3.42556155303986    0.10597162222621
C         2.07359511569650   -4.37955850260955   -0.01713738973344
O         3.25498364496415   -4.19909476008075   -0.64838267779816
C         3.49005569218627   -2.97173944396619   -1.30881930746010
H         3.71708365669660   -8.33834194292541    0.66393079008614
H         2.66223944155497   -7.83217920048483    2.00645398726114
H         1.94886056701189   -8.37220652044179    0.45580477985162
H         0.52103022415455   -6.91614552264995    1.64780983521445
H        -1.23842636018116   -5.23526936116225    1.80003974546570
H        -2.65129624840237   -4.06683654690781    0.27040701760963
H        -5.03292821186364   -3.17525074142458    0.07188102483376
H        -6.55376072200294   -1.20034694226609    0.05432384851977
H        -6.80809788518541    1.25034854107648    0.23066419704540
H        -5.79996215777832    3.47848096166368    0.55989910614880
H        -3.37011971639404    3.68507878044892    0.94492737426582
H        -1.95589219449192    1.68903288602424    1.06820463045129
H         1.19212341699395   -2.44336923836333   -0.32542681743428
H         2.72515276999151   -2.77056474950418   -2.06315094964693
H         4.45887717936461   -3.08237541443345   -1.79133708510381
H         3.53077421714621   -2.13908733169798   -0.60107049376973
Cl       -0.30685659129773   -0.26694031035529   -0.85138532143724
