61
 energy: -94.760568137520 gnorm: 0.000781012548 xtb: 6.4.1 (afa7bdf)
Ir       -0.60823145903748   -1.16573629236238    0.86117097021348
C        -1.71604309497664    1.08458552340345    3.24228958933057
C        -0.62284967200453    0.26259522480089    2.65084125561900
C        -0.31333841892478   -1.08478475843862    3.06272098589318
C        -1.00251757925768   -1.82376926541974    4.15907908005996
C         0.95435094654861   -1.44778267872226    2.48070233049654
C         1.77046393491373   -2.63031341348314    2.86924524442215
C         1.35277101661726   -0.39403537525526    1.61528807828884
C         2.64930347964795   -0.26387552705649    0.89448826638657
C         0.37224342746760    0.67464876377297    1.72294434743674
C         0.58496721309291    2.03895352397789    1.15430081488391
H        -1.42555943555748    1.37030094914310    4.25396910657743
H        -2.64335473262889    0.52077282387539    3.30892290029127
H        -1.89817357191102    1.98783549146789    2.66938270134030
H        -2.06801078175412   -1.61120995435834    4.16787703301798
H        -0.85468099363270   -2.89587307535508    4.06241048088887
H        -0.58736499126338   -1.51117088071087    5.11806349967814
H         1.14858625544431   -3.49320898308867    3.09158538246108
H         2.47344081642832   -2.89972213732228    2.08689682796218
H         2.33671767712841   -2.37957493036616    3.76711853543101
H         2.49675080665819    0.17800107396513   -0.08742224408036
H         3.13292491073096   -1.22837991388379    0.77321865231708
H         3.31312524039569    0.38957635714424    1.46161327336964
H        -0.23628978330380    2.70723534933584    1.39592253473913
H         0.70095586419093    1.99280819599058    0.07254311500545
H         1.50263242210393    2.45683036427369    1.56762365806157
C         4.56700867925562   -5.22589340961873   -0.98837386819190
O         3.48474163536605   -4.31745297111843   -0.88435861962949
C         2.36785543974685   -4.69511728931968   -0.23634620437609
C         2.19858228975768   -5.92038647372011    0.40991024713517
C         0.99971544236790   -6.19143572310947    1.05155112643767
Cl        0.80659418426754   -7.71507669794823    1.86319031367107
C        -0.04471348784492   -5.28644471142695    1.06285149477964
C         0.13197048182907   -4.06030349683203    0.41606678780729
N        -0.89810713975951   -3.11090678693377    0.39640820210234
C        -2.11083923566360   -3.47631445214680    0.12225070429536
C        -3.09694113198794   -2.44365431127472    0.05573367380397
C        -4.44438172069433   -2.69115281404623   -0.27547251214667
C        -5.30773184537735   -1.63880791599841   -0.38182073898280
C        -4.81575587001273   -0.32377507046687   -0.23377615042304
C        -5.63282212639600    0.80973788417758   -0.41077443217265
C        -5.10680198534346    2.07090316239047   -0.32809559408061
C        -3.73599499897149    2.24580787246265   -0.08092951925284
C        -2.91983235835333    1.16614562758811    0.12482665126208
C        -3.43486046497200   -0.14255703977852    0.07657551498144
N        -2.62255396518138   -1.20876554836810    0.28657896129963
C         1.32888589447456   -3.76049720373199   -0.21648140406694
H         5.32264404636163   -4.70832771777873   -1.57554416275792
H         4.26760461743445   -6.14022396627996   -1.50656295616423
H         4.97354990785555   -5.47324633085150   -0.00472111484414
H         2.97992875367705   -6.66093409518140    0.42362776610390
H        -0.96001197693796   -5.51211185489682    1.58422370674262
H        -2.35829770755053   -4.50279948620474   -0.12102351885244
H        -4.76566342588437   -3.70760208487530   -0.43194115155786
H        -6.35244283084555   -1.79161049923063   -0.60471615066907
H        -6.67839418181487    0.66090344514294   -0.63265624512875
H        -5.73638839202971    2.93465646980916   -0.47343833274922
H        -3.32627124431048    3.24370432955233   -0.06241254872590
H        -1.85957408422013    1.28906754268531    0.26969519832265
H         1.45185135176731   -2.82068697067179   -0.73110456504227
Cl       -0.15337904710303   -0.64471986733645   -1.42296097900885
