86
 energy: -129.859952106222 gnorm: 0.000272485366 xtb: 6.4.1 (afa7bdf)
Ir        0.11605631997226   -0.66485274703950    1.60940580907879
C        -1.00828218049721    0.76186924775021    4.44869137782088
C         0.14863859695679    0.31939516433085    3.61932463493568
C         0.81204086731193   -0.94004185291416    3.74652480754519
C         1.94581060693582   -0.93859229792316    2.86025828051653
C         3.01207521500438   -1.98199367763119    2.80159898478174
C         2.02469531498728    0.35355682350085    2.24667112054815
C         0.88446710068512    1.11827036459108    2.66959422030569
C         0.66076051037080    2.53729336648114    2.35996778430350
C         0.50093907869174    3.47262916622581    3.38111405635470
C         0.32306136717532    4.80931361058449    3.08272567655763
C         0.30398191190938    5.25214776525958    1.76106544749367
C         0.12669830942832    6.67765853550294    1.44591067486526
C         0.89488143929727    7.28249485409262    0.45309473646956
C         0.73114229120208    8.62308070234055    0.15609329967897
C        -0.20693623051651    9.37900295816989    0.84042289677645
C        -0.97739464176692    8.78691225348283    1.82797147577226
C        -0.80996662923224    7.44822273945003    2.13165575538574
C         0.46230622945117    4.31300470292106    0.74293922221034
C         0.63695868073853    2.97562698705171    1.03582567876684
C         3.16102938317456    0.85589802757458    1.42864565190573
C         0.50388165026346   -1.95858828348829    4.78900117797145
H        -0.65814880537020    1.00041171221291    5.45370947946466
H        -1.74968233196801   -0.02866162023330    4.53854781687896
H        -1.47768853079604    1.64615944877237    4.02720637164165
H         3.71102229114233   -1.83603864757833    3.62601054551765
H         3.56038295212828   -1.91368287476652    1.86637274349909
H         2.59037500594147   -2.98116222996520    2.88209750638430
H         0.54620500997990    3.15679678520700    4.41174465422092
H         0.22321527776073    5.52544371773553    3.88464448632543
H         1.64008562118561    6.70388202214264   -0.07355725047825
H         1.33856881278459    9.08161681369455   -0.61091106180998
H        -0.33567658008172   10.42547030322597    0.60566235785106
H        -1.71205215588135    9.37190886236504    2.36217043088072
H        -1.42406009334009    6.99107694929903    2.89387133901034
H         0.43171329295329    4.63361498944093   -0.28766911237615
H         0.73786104480653    2.25614186898355    0.23673842942984
H         3.14972342182647    0.41783127962426    0.43084472281469
H         3.10426639642291    1.93697091350055    1.32600830233781
H         4.10262723457707    0.58512313835958    1.90335450043960
H        -0.56333872199612   -2.15866327240419    4.84950775790518
H         1.03920288485943   -2.88416085389512    4.60342942474771
H         0.82116667878264   -1.56977763277776    5.75758706277718
C         3.95259725814779   -6.61239107710353   -6.05730935341335
O         4.50719700433928   -6.72971535388845   -4.76399344683888
C         3.77116360457820   -6.31875681162124   -3.69627145580288
C         2.48604113658992   -5.78927142908142   -3.76409514479837
C         1.83610253543475   -5.40074212412027   -2.60680099606023
C         2.43372319829816   -5.53511825220523   -1.35755730034059
C         1.72218288162013   -5.13734412642560   -0.13512570284480
C         1.82263908237899   -5.89553756989885    1.03223655790929
C         1.12754135055687   -5.53296831309832    2.17192395994727
C         0.32871573279542   -4.40270796550872    2.18055559723066
C         0.22831351024581   -3.63566131008800    1.02395414693216
N        -0.57667948851454   -2.47694873839019    1.00694697903065
C        -1.69382097206635   -2.48638065647090    0.36148610015130
C        -2.42613590476925   -1.24921198857550    0.30520810580769
C        -3.63859324022098   -1.08770030613832   -0.34157136138331
C        -4.25030930723936    0.17361207790911   -0.35919706354875
O        -5.41301062404221    0.26903879443429   -0.99289096716492
C        -6.08226761920764    1.52162185197429   -1.05049017048942
C        -3.57988082617179    1.22329537941671    0.28887642912361
C        -2.37181688655657    0.97682779060817    0.90573873614368
N        -1.79881793639317   -0.22257342285536    0.93528863951722
C         0.91292350605091   -4.00456261103435   -0.12787756567509
C         3.72133303117531   -6.07157487295250   -1.29945499193434
C         4.38136246864205   -6.45188403627168   -2.44599724540803
H         3.72780571882232   -5.56984151175167   -6.30130584952459
H         4.71596067143348   -6.98613475655445   -6.73727314542013
H         3.04733326029511   -7.21840914133667   -6.15957635796786
H         1.98132177554966   -5.67821066466254   -4.71067616348447
H         0.83318479195781   -5.00871377411337   -2.68317834944340
H         2.42883200349661   -6.78781042552487    1.03581377195635
H         1.20153635407135   -6.14043415932673    3.06084876285856
H        -0.23865950214563   -4.13003390946218    3.05473849317265
H        -2.06263588271702   -3.38003196044865   -0.12914023260228
H        -4.11387967141374   -1.91474401000224   -0.84210861466851
H        -5.47521655886713    2.26769754483783   -1.56756359111425
H        -6.34009416760468    1.87435122477170   -0.04979210110599
H        -6.99184527915900    1.33593182222987   -1.61714678173350
H        -3.98349113120758    2.22121121424083    0.31428867295257
H        -1.83964425588473    1.78205614354189    1.39141548677293
H         0.83965056001441   -3.37796239265606   -1.00286129283298
H         4.22078187722278   -6.17036626351018   -0.34770931790702
H         5.37971135693411   -6.85838163046372   -2.40562871307203
Cl        0.72182568623441   -0.42464836153607   -0.68166844049981
