68
 energy: -108.279430726401 gnorm: 0.000510425874 xtb: 6.4.1 (afa7bdf)
Ir       -0.43962233931723   -0.52608067994658    1.67123700068531
C        -1.88836446691794    1.21977416126638    4.31831804856756
C        -0.69420375334207    0.61120740410849    3.67682676848362
C        -0.27482122574166   -0.75214038387201    3.88611471151959
C         1.03707394333014   -0.90384683627882    3.32257520767763
C         1.97567015216845   -2.02353050932104    3.60276764561669
C         1.36219422572592    0.31267692735773    2.63809851473258
C         0.28653999221732    1.26324986085140    2.87904266658054
C         0.38894949966932    2.70775393839803    2.62489713167335
C         0.32574592966401    3.59009647502404    3.70246915809563
C         0.50306710250356    4.94459829983921    3.50678820937103
C         0.74708463954560    5.45862546265892    2.23446939793275
C         0.96968383445285    6.89867124348919    2.03785168293604
C         1.97209074426221    7.34761391664763    1.18021220484486
C         2.19790000189934    8.70115981451148    1.00935172557620
C         1.42198870948641    9.62793500129257    1.68648514056254
C         0.41800816364213    9.19257478974228    2.53631238132946
C         0.19509235060319    7.83940785566293    2.71372404550376
C         0.79159427868536    4.57349788503433    1.15872982809982
C         0.61537127076243    3.21803515127059    1.34924036630269
C         2.69090983132477    0.65803734780825    2.06656078775103
C        -0.94499532326635   -1.71367707912247    4.80699663139585
H        -1.74011938711217    1.21562603111842    5.39890266124013
H        -2.78927748338138    0.64442774601630    4.11367811936528
H        -2.03518435330012    2.24233429566309    3.98522630169106
H         2.48629049607941   -1.80765763890692    4.54246086765167
H         2.72685628512223   -2.11918519281825    2.82495387771993
H         1.45525904406993   -2.97079038474224    3.71150502139752
H         0.17334445807454    3.21020653186901    4.70075896335433
H         0.47969824962604    5.61244763000174    4.35465914195569
H         2.59249797738473    6.63103614538218    0.66171278821669
H         2.98356635498032    9.03607240293904    0.34752935914144
H         1.59901864690401   10.68505355005448    1.55198941841216
H        -0.19287803576595    9.91199535965866    3.06227410371543
H        -0.59938619863251    7.50793492129042    3.36614240846306
H         0.95134501148451    4.95468566970066    0.16126863024675
H         0.62713330273732    2.55041454127069    0.50148850686166
H         3.17103615680595   -0.21085384839413    1.62529138723558
H         2.60011856490354    1.43738412967211    1.31576448155555
H         3.32709123104594    1.03234839135237    2.86950263188389
H        -2.02529912450432   -1.60417603014884    4.77008811886310
H        -0.68099193549391   -2.73960795330501    4.56600736064774
H        -0.62065831563690   -1.51216865289812    5.82866101981234
F        -4.29324136420194   -3.33723262507008   -0.56608205617326
C        -4.01639674157042   -2.09812877394624   -0.15106716587792
C        -4.93250679708101   -1.07778982277200   -0.32260591282429
C        -4.55865988226824    0.19403423882161    0.08450603706860
C        -3.31073192535277    0.38095023512485    0.66752268843540
Br       -2.78886950898519    2.12655887547108    1.13925129390561
N        -2.45276821068936   -0.61090975413588    0.89227519104896
C        -2.77433446231977   -1.85144335248170    0.44774628973567
C        -1.72971667161851   -2.82080785855638    0.54283145952797
N        -0.57635873234882   -2.41273237251139    0.97142562357538
C         0.50468831366292   -3.30321154504160    0.98281990943068
C         1.72569828753358   -2.88778762318879    0.44986646227261
C         2.79073060432269   -3.76799828395093    0.41205192648261
C         2.65877225329795   -5.04915989504144    0.92831037259680
C         1.45020132939158   -5.45614499251321    1.47429686512925
C         0.36941919303210   -4.59478137975782    1.49535888862134
H        -5.89131694607098   -1.27028163247011   -0.77726269052227
H        -5.21938043684631    1.03534349397494   -0.04726006853346
H        -1.88802082294793   -3.83089008643441    0.18244963895422
H         1.80467920273017   -1.89436852910176    0.03507013052252
H         3.72722569050314   -3.45388625492906   -0.02180125467185
H         3.49603436590458   -5.72865293673359    0.90580005038777
H         1.34807945930944   -6.44966184601238    1.88208402187255
H        -0.56855435581970   -4.90274398819531    1.93208673192799
Cl        0.03581865168370    0.19522501824312   -0.55704885754710
