76
 energy: -119.193869614780 gnorm: 0.000332540094 xtb: 6.4.1 (afa7bdf)
Ir       -0.31655224872089   -0.67147440850349    1.65676189208764
C        -1.70807501478515    1.05232441216662    4.23257463831927
C        -0.48871907153233    0.47772496995504    3.59731938794388
C         0.04229710800107   -0.83015139550976    3.84813615404765
C         1.32880671151995   -0.92027721318627    3.19946349347435
C         2.32853345172226   -1.99799603862490    3.44314725900337
C         1.54137742174707    0.27956494789705    2.47216455121223
C         0.39712187161705    1.15125412667169    2.70019478252339
C         0.35731159490677    2.58514403172069    2.36612399627489
C         0.33971914958062    3.52126860356662    3.39903107600536
C         0.36721608788654    4.87269449466018    3.11811772394046
C         0.40997543203855    5.32960583134983    1.80172734217295
C         0.47441179119704    6.76905112928866    1.50724020971947
C         1.30187901944780    7.24360370391814    0.49109384885390
C         1.37858499713292    8.59697983556400    0.21871594750637
C         0.62623069714769    9.49925700677080    0.95316070592155
C        -0.20055163601538    9.03889861583019    1.96497472577580
C        -0.27424983557828    7.68614359292872    2.24230519023647
C         0.40859500358733    4.38826846107995    0.77323888182761
C         0.38410527536492    3.03566576952716    1.04936761786981
C         2.79695774952873    0.68700916026465    1.78367381952503
C        -0.49176063276749   -1.80462595503371    4.84142716652560
H        -1.50896054214286    1.22176992813563    5.29105716621529
H        -2.55316095525945    0.37096827998247    4.16200711552239
H        -1.97000033613102    2.00273971680554    3.77573891323604
H         2.84330913582921   -1.78872807255690    4.38178105071423
H         3.07119937183937   -2.03653963484541    2.65184467385419
H         1.85266033185543   -2.97172374213141    3.52824001531518
H         0.33533633627867    3.18714034032813    4.42547145444803
H         0.38299672092676    5.58467314047910    3.92963071797599
H         1.90615817491618    6.54892856210146   -0.07397425139182
H         2.03028852411590    8.95068830781841   -0.56714236636197
H         0.68532604581450   10.55626862348496    0.73840739670877
H        -0.78987970879471    9.73878084201035    2.53967452056215
H        -0.93261959200081    7.33632633526831    3.02389976719063
H         0.41327583006681    4.72047403762900   -0.25416355208642
H         0.36697717441018    2.31992015450550    0.24171244699721
H         3.30885187688449   -0.16969240841927    1.35270829352290
H         2.58980492244038    1.40662637350645    0.99637270146316
H         3.46542391020744    1.15683899303892    2.50667065631409
H        -1.57070889033413   -1.71990957039484    4.93267869759004
H        -0.23503686215665   -2.82406509659555    4.56631060954860
H        -0.05017439786893   -1.59816015375520    5.81707236524944
C         2.00592593699709   -7.92938001938232    2.09553748668024
O         1.00992350835007   -6.92145141478091    2.07080265706298
C         1.30084464462354   -5.72712401775565    1.52606163270886
C         2.53887069640699   -5.37606167739973    0.98860117343371
C         2.69654194916568   -4.10372155836124    0.46695910199063
F         3.90001096244313   -3.77121881172283   -0.04770018868140
C         1.69462847044655   -3.15707479232847    0.46469060290575
C         0.45674872951425   -3.52364687386071    0.99375051711291
N        -0.57861464482510   -2.57757366551323    0.98986597005094
C        -1.74100470626544   -2.88227605129927    0.51643902175846
C        -2.73017937397804   -1.83939675396910    0.51590693232620
C        -3.99733864900389   -1.96865434475669   -0.02479467536536
C        -4.86749187145027   -0.86827899539321   -0.02317465384326
O        -6.07027831161493   -1.05249115312390   -0.54962721340644
C        -7.00208891975514    0.02124872986740   -0.57324459703199
C        -4.38768548535971    0.32915691219232    0.53184323248950
C        -3.11015829542130    0.37320026990626    1.04877698136995
N        -2.29255439244326   -0.67569054889505    1.06457722873794
C         0.25862300421662   -4.79325810026502    1.51626070066688
H         2.31911740887858   -8.20044690813381    1.08418642448491
H         1.53734298586359   -8.78711460806598    2.57286584405181
H         2.87361454297418   -7.61475388758575    2.68059284962152
H         3.37364485980052   -6.05569725386728    0.96212892506394
H         1.84549202690627   -2.18113327438122    0.03361059441153
H        -1.95096525367902   -3.85644609193805    0.09044761077654
H        -4.32163685890135   -2.90029375189836   -0.45792518938342
H        -7.24852128444848    0.34672038783670    0.43938074478015
H        -6.61931427473638    0.86139129579649   -1.15589510723733
H        -7.89102143774143   -0.38034884816526   -1.05417023374591
H        -4.99174544789946    1.22002478729554    0.56120371013362
H        -2.72791228872924    1.29202773953982    1.46806502505862
H        -0.68806509827535   -5.07778307781728    1.94606320575496
Cl        0.11132987394242   -0.13391528046213   -0.63534711821444
