66
 energy: -108.076913397455 gnorm: 0.000720932503 xtb: 6.4.1 (afa7bdf)
Ir        0.29119617448139   -0.20065904678358    1.51525812439345
C        -2.33032187685602    0.66055696808212    3.43527591531440
C        -0.87578668569943    0.38799509850182    3.30975520402294
C        -0.24960192693826   -0.86291943970852    3.63788968691002
C        -0.95856570156311   -2.09039455048039    4.09879090117986
C         1.15222965246125   -0.66512686439134    3.52154500782365
C         2.22538821968378   -1.61059956064049    3.93967692462073
C         1.39722727784912    0.76744742575209    3.27209148469869
C         2.74271525212516    1.39734963639942    3.36605995141382
C         0.15892284912758    1.40922805022461    3.18975004114732
C        -0.08060650526414    2.84898468119514    3.04617584512786
C        -0.85911682287223    3.51559599290771    3.98927447925020
C        -1.05756682210629    4.87674853348945    3.85760568410537
F        -1.80394423954379    5.51333893317505    4.78191594353998
C        -0.52011744078080    5.61254699278645    2.81621143801894
C         0.24332769914296    4.92153856205198    1.89302578028175
F         0.77812090514056    5.59435995246893    0.85341452957775
C         0.47533119802562    3.56298569823007    1.98674231150117
H        -2.60336185561613    1.60267215606891    2.96456395745363
H        -2.59193595719375    0.71734186656616    4.49288135869609
H        -2.91589680639048   -0.14508812945685    2.99825740789736
H        -0.37771697256520   -2.98555782801128    3.89737380471459
H        -1.12306521494378   -2.02362505047831    5.17462771734176
H        -1.92581422118169   -2.18679322353667    3.61393011953564
H         2.57201639925840   -1.32179274056066    4.93293975839133
H         1.85529640999233   -2.63003936011430    3.99513788165459
H         3.08058611266077   -1.57376564998230    3.26866643260002
H         3.49517218112743    0.80597096583808    2.85154112220843
H         2.73508628830524    2.40918601270888    2.97321808433724
H         3.02758802215375    1.44512598723864    4.41787971457880
H        -1.28716445877195    2.99542085272512    4.83003838107166
H        -0.69159444584649    6.67200819122229    2.72721070161955
H         1.06980941585249    3.07545967605852    1.23031527877680
C        -5.29845930808258   -1.29253303728667    0.99315849116366
S        -5.16532101784149    0.50424479185965    0.76680533408956
C        -3.47819149541219    0.64118925357528    0.37956871865906
N        -2.74310009243097   -0.44649219012273    0.40686073267425
C        -1.45857370932519   -0.39173458201886    0.02568398995163
C        -0.60629545553027   -1.53742098895005    0.22668327321185
N        -0.53030736071809   -2.66090923842622   -0.26629054639286
C         0.28181714869488   -3.75143608509038   -0.05272220952547
C         0.20706292377312   -4.79530264540869   -0.97410894426312
C         1.00265318877082   -5.91277182751818   -0.81324221686804
C         1.88080011609053   -6.02071766439892    0.26065248680357
C         2.75637524532284   -7.22046159597334    0.42963729583761
C         1.94288754880140   -4.97352027081160    1.17987002467355
C         1.15820715045201   -3.85194090809576    1.02999851926762
C        -0.84275479073900    0.81987941945503   -0.42100712992016
C        -1.62184184076491    1.98041730674962   -0.38736443073402
C        -2.93795313013209    1.91852891393496    0.03782073566034
C        -3.74344924006182    3.07368733336729    0.07209045034989
N        -4.38838874070595    4.02294968926253    0.09879668085478
H        -4.92456257309681   -1.78637279995038    0.10361756051016
H        -6.35316967232634   -1.49995297511258    1.13954833353617
H        -4.72558048706957   -1.59021325950903    1.86371192314833
H         3.24917381358011    0.27064484471622    0.15528850157524
H        -0.47045335774937   -4.71486863777001   -1.80939278756561
H         0.94195737246205   -6.71523139968259   -1.53328480712759
H         3.79257903019570   -6.95833716415438    0.21578840317002
H         2.71271739168030   -7.58698564076919    1.45329909863417
H         2.46005706706689   -8.02002060546074   -0.24395093941013
H         2.61902810470263   -5.04829645407924    2.01837517902790
H         1.20092601530407   -3.04161668833534    1.74286887782587
H         0.05721345811162    0.81659565771551   -1.02688188938295
H        -1.21281333950186    2.92548298687567   -0.71407276556323
Cl        2.30719393310868   -0.58404332810633    0.07637608235613
