86
 energy: -129.053376644766 gnorm: 0.000562720140 xtb: 6.4.1 (afa7bdf)
Ir       -0.60000655532629   -0.08923249836133    1.35791350954049
C        -1.86343667369925    1.91237279711898    3.82635758420301
C        -0.74557310606842    1.06936567946986    3.31543120276174
C        -0.61456416102757   -0.34537884422836    3.56582778375087
C         0.67582540401978   -0.75205201091380    3.10426511036422
C         1.34638062303930   -2.04840623178152    3.39128360448869
C         1.28724886371980    0.36214206707232    2.44976289985386
C         0.41617759951512    1.51135961789451    2.62195414371845
C         0.80745564831019    2.90368446733971    2.36086033112205
C         0.77964593549947    3.82921927630937    3.40324751125660
C         1.19439772021522    5.12912214443529    3.19567393478093
C         1.65030867560306    5.54419910312850    1.94535193441521
C         2.10464014814710    6.92682347042769    1.73613831390239
C         3.24013605604055    7.19152933917922    0.97295646541471
C         3.67961577518133    8.49014388237017    0.79255620370730
C         2.98891940692951    9.54589122605659    1.36520653007677
C         1.85477075373775    9.29471409156298    2.12024627006207
C         1.41741554240859    7.99631946256948    2.30694592344401
C         1.67194435646704    4.61575440100733    0.90534288867608
C         1.25717898858889    3.31407109132990    1.10686590494024
C         2.70166235231651    0.40846464281555    1.98640377068468
C        -1.53414281405602   -1.14457875746137    4.42694168585083
H        -1.79697661098575    1.96868863122089    4.91339465854199
H        -2.82990584553976    1.47705271323626    3.57952758421707
H        -1.80600491594388    2.91789568754593    3.42084778729144
H         1.89021940934770   -1.95359916207261    4.33230760893798
H         2.06267661664360   -2.30488890476928    2.61519393747436
H         0.62986101804513   -2.85808747477646    3.49818372388785
H         0.46205758327897    3.52007677164145    4.38714448222351
H         1.19111956279191    5.82736123053631    4.01911706994719
H         3.79484866830078    6.37316512842338    0.53754142715271
H         4.56658515998922    8.68101781682776    0.20565508773743
H         3.33359163904207   10.55972682655120    1.22378905563784
H         1.31046277292782   10.11531229818904    2.56505316751400
H         0.52466451119898    7.81054284518152    2.88586536184704
H         1.99892238349387    4.92336588884450   -0.07660782106555
H         1.24760746295844    2.61712279490531    0.28232273094240
H         2.91571426020902   -0.39230907792724    1.28171591953637
H         2.91937454643878    1.36006372409511    1.51080854632688
H         3.36252815657099    0.28757125911625    2.84545311999325
H        -2.56643193074233   -0.83593791224859    4.28636838568938
H        -1.45048325705522   -2.20660361215712    4.21317450729983
H        -1.27455574515480   -0.98907533722082    5.47490334797287
O         4.57769819763579   -3.72457268811052   -1.31285819234557
C         3.74023032677150   -2.94388881144888   -0.92111083203360
O         3.88210614873110   -1.62608400415048   -1.00883067832603
C         2.46029352444741   -3.35544640220736   -0.28504537955635
C         2.31556364956841   -4.67564263536434    0.13810002303649
C         1.13471938528210   -5.08106462395627    0.73432103283879
C         0.09076373291559   -4.18681663204241    0.89170569873563
C         0.22323627140186   -2.86710735465940    0.45079740987715
N        -0.82886838132316   -1.95184723992968    0.59981054277912
C        -2.04585143963423   -2.32093861297622    0.39233318993269
C        -3.11101131013952   -1.37494763826828    0.57062169183645
C        -4.42660142020917   -1.80215368792816    0.57191325127124
C        -5.41114227115536   -0.86369253302612    0.88400958370377
C        -5.05369862688741    0.45141944447946    0.96531027145550
C        -3.70721858007343    0.86820161098436    0.71187118549403
N        -3.47764631458704    2.15990943806259    0.46301540868177
C        -2.16306931063641    2.74839605912663    0.30854003051779
C        -2.19750025047517    4.21335590496120    0.72822634282171
C        -3.05296618979200    5.02866140275982   -0.24556571259206
C        -4.13392647978230    4.12909223553526   -0.84931618874512
C        -4.58298500640590    3.06067623332636    0.14453049686246
N        -2.72909233385514   -0.07485908507649    0.72401122616932
C         1.41998908736453   -2.44862364018363   -0.12424036700232
H         4.70887132424404   -1.37929664132459   -1.46056467448791
H         3.13801223800311   -5.35933122565821   -0.00205858019273
H         1.02584880554139   -6.09746150247661    1.07855524567998
H        -0.81981624002487   -4.50352334162384    1.37726341709069
H        -2.28552718832756   -3.32147504564064    0.04758999828047
H        -4.66418537577495   -2.83848624794064    0.40677611392764
H        -6.43062326176144   -1.17044308631686    1.05447762153938
H        -5.78441253515780    1.18885808446753    1.24721912297000
H        -1.82360060404029    2.66069261805896   -0.72777452547261
H        -1.45595639162361    2.19630069106194    0.92552393279929
H        -2.61166482439507    4.28437032420955    1.73490148376514
H        -1.17935139222478    4.59826916886812    0.76120181753161
H        -3.50700198368879    5.86948842071673    0.27945855879791
H        -2.43433691300961    5.43805584398303   -1.04405196057379
H        -5.00203432916065    4.71989914886712   -1.14165931187017
H        -3.75722866268075    3.63624053910257   -1.74621361775568
H        -5.39148203868749    2.49054337230611   -0.31541133999778
H        -4.95603842859149    3.53968961807815    1.05612911946595
H         1.51914129963131   -1.43410323283288   -0.47782216656913
Cl       -0.02611089304450    0.54144620157474   -0.87184648653437
