67
 energy: -104.162854778270 gnorm: 0.000891320076 xtb: 6.4.1 (afa7bdf)
Ir       -0.11112633560473   -0.86335642409904    1.39995867589958
C        -1.78841602425808    1.29435732518178    3.48768784512278
C        -0.54722058895067    0.55268700882187    3.12827029668478
C        -0.21478300214881   -0.76017768453945    3.62131048744739
C        -1.04163994769725   -1.53919760731676    4.58881591651655
C         1.16814557398902   -1.01761595939628    3.29469388815766
C         2.03956634622865   -2.07395522037468    3.88095343270155
C         1.63237931550094    0.06033541551430    2.49616820288482
C         3.03186494654524    0.28007392317615    2.03981386365443
C         0.57013437582544    1.04255618555973    2.39197113501257
C         0.79353847641531    2.42918058659349    1.88347465225029
H        -1.69761963460828    1.64260627247062    4.51737055902489
H        -2.66446509791510    0.65324998264194    3.42866844873894
H        -1.94299846013163    2.15539867558438    2.84533881452391
H        -2.10188660464866   -1.40183144204673    4.39544082174959
H        -0.81323143265878   -2.60014975646996    4.54145804349173
H        -0.83415449462025   -1.19021235057460    5.60110504784878
H         1.46430585963310   -2.77852148255237    4.47227682904907
H         2.58726410186997   -2.61552086060126    3.11240102283806
H         2.76942015797629   -1.59486139381753    4.53428921805808
H         3.04589256127364    0.70887642632519    1.04049213062466
H         3.59136020014038   -0.65076456290097    2.02903791785828
H         3.52547691910639    0.97853681245549    2.71661401685144
H        -0.11454613010544    3.02337744885625    1.91909802665276
H         1.17296564773296    2.41271057254171    0.86308366151210
H         1.54581631661327    2.91402592204061    2.50641131885855
C         1.47135170005426   -2.39428437160688   -3.77972889014490
O         1.85040414384967   -3.00581230925361   -2.55033756085390
C         0.87120989776588   -3.31475257507461   -1.71044093946896
O        -0.30811538881856   -3.18292909215557   -1.96547370784351
C         1.38889884242480   -3.93945861987403   -0.45838202806996
C         2.50176702673609   -4.76943113394493   -0.52936459597611
C         2.96003430054511   -5.44199102909070    0.60152440065924
O         4.01873373372474   -6.27445849083563    0.62949302691631
C         4.75653148689910   -6.49676421182226   -0.55822417645620
C         2.27797758428159   -5.27208054070413    1.81320459642101
C         1.20013780732021   -4.42074175504116    1.89638767485631
C         0.74809145024639   -3.73547280943097    0.77081601118820
N        -0.32521659050828   -2.83083959730006    0.85501813809837
C        -1.46530587819314   -3.16715153937421    0.35318920388551
C        -2.44531665206693   -2.13390990755271    0.19981355057995
C        -3.75082818039238   -2.38273507214310   -0.26552748843518
C        -4.59784915143163   -1.32996376674413   -0.46354826630612
C        -4.11262563036858   -0.01545499226257   -0.29109964888562
C        -4.89882181195915    1.12009838917292   -0.56914727173728
C        -4.36889820681505    2.37870718420375   -0.47335168302642
C        -3.02179927643767    2.54799833311381   -0.11675858265807
C        -2.24054990045992    1.46728607383904    0.19459825171464
C        -2.76672434281016    0.16348500536099    0.14685688481293
N        -1.99083934896578   -0.90262749013160    0.47108018075158
H         2.38650441732168   -2.28060941764433   -4.35357390753970
H         0.75137140156177   -3.02132149940122   -4.30898278400284
H         1.01867018145408   -1.42115331809117   -3.57936682257769
H         2.98301575571031   -4.89103595990032   -1.48523801821181
H         5.18853431059025   -5.56664510982729   -0.93651769850146
H         5.55428148954177   -7.18167606057557   -0.27861472090615
H         4.13511631230642   -6.95753689098714   -1.33049535144635
H         2.61961149629614   -5.82143068724820    2.67532921618249
H         0.66847237054105   -4.30490084339190    2.82605278164736
H        -1.66399889589017   -4.17345528691563    0.00487145565210
H        -4.05317429261917   -3.40058691821813   -0.44707541954689
H        -5.61728769145474   -1.48162691904417   -0.78278216274308
H        -5.92138772678428    0.97280846914342   -0.88086896490351
H        -4.97402519630497    3.24335451043118   -0.69627033004432
H        -2.60038265014151    3.54120322224526   -0.09833445693839
H        -1.19420666323832    1.58121782234471    0.42276265539590
Cl        0.88230672098134   -0.47729060733653   -0.72572882555036
