66
 energy: -105.293753810667 gnorm: 0.000678248974 xtb: 6.4.1 (afa7bdf)
Ir       -0.67364470015049   -1.35919488541165    1.02056056024799
C        -1.69135640974445    1.11182236449576    3.17775166937444
C        -0.61338599573485    0.24915146856630    2.61688426743107
C        -0.21191938049322   -1.02353577889495    3.16704288420810
C        -0.77681727587443   -1.64638975492774    4.39839724849435
C         1.02223664444294   -1.41126123076013    2.53008782731909
C         1.90058825234785   -2.52352451086974    2.98728814105848
C         1.30709020185680   -0.46066050153960    1.51424970711304
C         2.54192949423696   -0.36628900244809    0.68589576254364
C         0.28842610726434    0.57728991738809    1.57042223445737
C         0.36486821967346    1.85308875746011    0.80342174625563
H        -1.30889125423758    1.60603144703850    4.07177817277341
H        -2.56187584371807    0.52789874818526    3.46612483790397
H        -1.99016481524398    1.88254474355020    2.47312340458393
H        -1.84545062293984   -1.46798825837095    4.47618376296426
H        -0.59369864694326   -2.71692713691565    4.41424699307157
H        -0.29532236927823   -1.20820704957669    5.27341296215843
H         1.32022759979760   -3.38701409445688    3.30180167201803
H         2.59174523474164   -2.82987512048162    2.20769650392055
H         2.48210690313418   -2.17625973622792    3.84190611555407
H         2.29780138368516   -0.09856072607256   -0.33998948728747
H         3.09349237147493   -1.30169639134962    0.67994158781956
H         3.18777916850374    0.41363301851161    1.08979748984801
H        -0.53557968976443    2.44762933114782    0.92185760234243
H         0.51327651777015    1.65305447256747   -0.25568270386187
H         1.21584166848600    2.43513167740226    1.15718013934638
C         3.46881786144032   -8.18621761089283    1.43709165278146
C         3.50361562553469   -6.88758288704269    0.70754216967565
C         4.60078948559580   -6.48185131696612    0.02581340275821
C         4.67070155174431   -5.22360615923475   -0.68327579321858
O         5.63030751842040   -4.81851907649303   -1.30312188494346
O         3.56163731218408   -4.42284233582597   -0.63802203741893
C         2.44120560897670   -4.79805865328765    0.02093356139624
C         1.37149555383349   -3.90812746716370   -0.00497167243334
C         0.18759269552277   -4.23606200514982    0.63847195733134
N        -0.88236879839565   -3.33460897356643    0.60482503470474
C        -2.06666347265540   -3.73816632504171    0.25705099309430
C        -3.09989063164993   -2.75620282239153    0.24032819934501
C        -4.41171224546204   -2.98413257559848   -0.19235388245157
C        -5.30460163076175   -1.94099577058923   -0.21986725414214
C        -4.88061713970996   -0.66148769873573    0.18363168481579
C        -5.78473743856868    0.45624321797750    0.16292094672404
C        -5.61868229072638    1.78887899098515    0.48623517226086
C        -6.86153312649547    2.40886998050465    0.26595521588284
C        -7.69975568292194    1.42200059455102   -0.17411766065957
O        -7.06408709862609    0.25108511685391   -0.23843316645409
C        -3.55413086177592   -0.51676633022371    0.60827057940300
N        -2.69577758041743   -1.52244377974228    0.64577007054829
C         0.07762518038667   -5.45225631247644    1.32596497239321
C         1.14394924751032   -6.31880449682267    1.36514333322800
C         2.34781191455432   -6.01866716013335    0.71336210031033
H         3.26990384125769   -8.01972470520387    2.49411140295862
H         4.41846232547143   -8.70311565596329    1.33676957362005
H         2.68065530079850   -8.82216290021113    1.03795098282829
H         5.49465592702964   -7.08304915054499   -0.02391764408606
H         1.45806703845491   -2.98492336484793   -0.55557425364897
H        -2.25354645968069   -4.75841416954332   -0.05715812843339
H        -4.69857856014134   -3.97311703005298   -0.51045427248481
H        -6.31990785189942   -2.08421634116454   -0.55326782032113
H        -4.72646409473570    2.26627249674959    0.83227550456740
H        -7.10385510019703    3.44105306232364    0.41172349347826
H        -8.73280593047674    1.43974836358299   -0.46086341873881
H        -3.18775364400505    0.44822852764764    0.92094743398495
H        -0.83817597701169   -5.69049843990260    1.84346448124175
H         1.05080921857240   -7.24706748175459    1.90391015204773
Cl       -0.50051535426114   -0.99049412262861   -1.33792428363395
