73
 energy: -116.756924904090 gnorm: 0.000514455168 xtb: 6.4.1 (afa7bdf)
Ir       -0.75986124744473   -0.78225397839514    0.59095985050271
C        -1.69902032340616    1.83549359130180    2.75564832526273
C        -0.78214385289540    0.74975767353089    2.31542231042604
C        -0.85293421987455   -0.61056649931349    2.80936446176285
C        -1.86891919672697   -1.10963525228494    3.77941142313227
C         0.37895426825109   -1.26565763326608    2.47735611467233
C         0.84206795819172   -2.56598508635353    3.03269066990563
C         1.13133375035448   -0.37924589285485    1.64595820726403
C         2.53576931146796   -0.56581255856486    1.18666037421020
C         0.41948082009207    0.88716834476357    1.57989534778260
C         1.00884708584345    2.13274071320026    1.01647053712525
H        -1.42730903392025    2.11512531620009    3.77473754802929
H        -2.73444681392869    1.50722026756786    2.76511765430084
H        -1.61134178232618    2.71472858399651    2.12624244342815
H        -2.84865904999547   -0.68959328575309    3.57046937779444
H        -1.93564046039663   -2.19351800745495    3.75749037815304
H        -1.58044774351436   -0.80762293685118    4.78696083184458
H         0.01412491579550   -3.25136463116390    3.19009834512307
H         1.57594554831424   -3.03923286960401    2.38680345156387
H         1.31043736666161   -2.37488922155341    3.99907050425520
H         2.67198692047049   -0.15276157142747    0.19007793049582
H         2.81319181119949   -1.61532185287325    1.17645385441991
H         3.20546473210106   -0.03418872020661    1.86318698068529
H         0.28826098988658    2.94416999004309    1.00102390362587
H         1.36710506137317    1.96289568693223    0.00337920325109
H         1.86124254867116    2.43137113350616    1.62680097646533
C        -3.23936935623552    7.97237005899302    0.70109380685011
O        -3.41204437956970    6.56049365529597    0.62053563274423
C        -2.38734599532197    5.85066130376311    0.14376631564370
O        -1.33630094547727    6.34079100675263   -0.20656114950198
C        -2.68714309437708    4.39614309892128    0.08182180002646
C        -3.82908987342198    3.85500641555052    0.67097134536925
C        -4.09216479346672    2.50586132523819    0.54750211777914
C        -3.21488507351004    1.66965758917221   -0.14900465440829
C        -3.59917567711636    0.27403146998146   -0.41742849286574
C        -4.88518089345159    0.06985776287397   -0.93055063953898
C        -5.29997682166360   -1.19300469968321   -1.31244042755511
C        -4.40234668292465   -2.23772130717638   -1.18894828817262
C        -3.14544964145300   -1.98171287647533   -0.64564950210572
C        -2.15854283148401   -3.01133934968918   -0.51297896136043
N        -1.01264585262685   -2.69299952817949   -0.00808731481327
C        -0.01563186002662   -3.67609034829777    0.10465293191190
C        -0.30046665690728   -4.89823623494861    0.71828441890404
C         0.68499062900093   -5.86484376247943    0.80882844412668
C         1.93801527213875   -5.61284747638486    0.28045059508134
S         3.20860569782711   -6.88808003475072    0.37233169778099
C         4.01773487368652   -6.59973772977094    1.96705030397408
O         2.55563816000470   -8.17548512979863    0.40516386420214
O         4.16390597206966   -6.65425983931850   -0.68398809029021
C         2.23078383664959   -4.40591211111447   -0.32889822671430
C         1.25573948971613   -3.42829524261168   -0.41337155205793
N        -2.75125133979686   -0.74625904329075   -0.23743317260772
C        -2.06176930070635    2.20873980598679   -0.71508658286767
C        -1.80463645699649    3.56255366610172   -0.60137252629862
H        -4.19936928187043    8.37389297430009    1.01406487645609
H        -2.46244014902073    8.21657988331279    1.42806550265310
H        -2.95042533457288    8.37340805772300   -0.27222942837579
H        -4.50561489896059    4.49800294262425    1.20989467056094
H        -4.97985276034436    2.09404211402681    1.00288200198407
H        -5.53664617531374    0.92070875759664   -1.04747712721528
H        -6.28925477287295   -1.35218345498872   -1.71115458734184
H        -4.65268586186995   -3.23741469955802   -1.50350596607302
H        -2.35970926817334   -4.01230254052146   -0.87860490332745
H        -1.28116587803539   -5.07867543931204    1.13052285762848
H         0.49248811479180   -6.82323246856063    1.26332180856919
H         4.45497505644247   -5.61027036464342    1.94760967146698
H         3.27387716792601   -6.70004023485108    2.74613841981779
H         4.78915137159147   -7.35198348568385    2.07918227603595
H         3.21278436651197   -4.25798848667210   -0.74886145455517
H         1.45023655008354   -2.48943774330877   -0.90726992089016
H        -1.39257933888549    1.58041530766037   -1.27969219855828
H        -0.92955866790368    3.99908893514521   -1.05848610000645
Cl        0.05278499146699   -0.38710580249417   -1.62994009764254
