67
 energy: -116.439073596890 gnorm: 0.000969863803 xtb: 6.4.1 (afa7bdf)
Ir       -0.44449988224947   -0.75059560855061    1.65343529491430
C        -1.86488491565721    0.99964870007889    4.27101998591482
C        -0.66491223804516    0.38555357003048    3.64588098290542
C        -0.23824679403833   -0.96592275049135    3.87590761802543
C        -0.89166574559014   -1.92190391149169    4.81304372382640
C         1.06189546618782   -1.12772692078418    3.28412957175305
C         2.00292171706367   -2.24864200067361    3.55302979938658
C         1.39147430405355    0.08403743195521    2.60099499924866
C         2.72266893736241    0.40115676704069    2.01901477162861
C         0.31174233247558    1.02748256925486    2.82419394717666
C         0.39667952214837    2.46676598854530    2.53065496087975
C         0.28941714759927    3.38485216559015    3.57293234138312
C         0.40990446078200    4.73362336123115    3.29509094858043
F         0.31057164374847    5.61444565729439    4.31125576313787
C         0.62585386047112    5.21593317676218    2.01682819889924
C         0.72681183466344    4.27778490885404    1.00437160435807
F         0.92219724264861    4.71192441175257   -0.25874813836231
C         0.62235182184899    2.91961883405174    1.23242490540262
H        -2.05311715051859    1.99159202741509    3.87424157744765
H        -1.69857689019555    1.07158569937739    5.34656966571504
H        -2.74774758168305    0.38241279828894    4.12101564630224
H        -0.62262261778946   -2.94761313790059    4.57767220826581
H        -0.55592437165501   -1.70803415829468    5.82845428268989
H        -1.97273095699487   -1.81957893413678    4.78875931888569
H         2.51898699709801   -2.04112199100337    4.49134763826261
H         1.48260222610838   -3.19650806808698    3.65642761622420
H         2.74956371924550   -2.33406187217106    2.76972453015717
H         3.07458434382227   -0.40248515626566    1.37666465221770
H         2.69130697728094    1.32084356983321    1.44368426268195
H         3.44121073798128    0.52078968130826    2.83056143973708
H         0.13932086027829    3.06510712212148    4.59067018416350
H         0.71262585017884    6.27122315320722    1.81878207106464
H         0.68467671147629    2.22782277769416    0.40672614757078
C         1.66956554122592   -7.99926599111534    2.46437224437515
O         0.71839321915084   -6.95037844517818    2.38765213164682
C         1.04703643921627   -5.81179201525282    1.75824039814464
C         2.28725321186047   -5.54862439078531    1.17507783509263
C         2.48915462817768   -4.31988323186354    0.57035599128754
F         3.69259443185379   -4.07407728829747    0.01518473365869
C         1.52772261683974   -3.33124252247425    0.52439488219566
C         0.28591269785817   -3.61257136226150    1.09513745436215
N        -0.72234827141188   -2.63596614154956    1.02331525384953
C        -1.88973879859589   -2.96617575188555    0.56883959763587
C        -2.85519148949704   -1.92205270058140    0.41922216299509
C        -4.08834722036703   -2.09920264514674   -0.20897849505466
C        -4.91262204670511   -1.00452787759427   -0.36425757602701
C        -4.46799670204492    0.25132695647426    0.06015310312203
C        -5.37768289255137    1.32897713868100   -0.02008431043482
N        -6.17728931913513    2.14974600935645   -0.06673729219295
C        -3.18103831114950    0.37701299869559    0.62620920880767
S        -2.44679553982176    1.88457113002655    1.09368250816796
C        -3.05629736334043    3.10365642421217   -0.10517152713390
N        -2.43191240806905   -0.71070296496816    0.85433328008474
C         0.04461626785024   -4.83604161637891    1.70336994621333
H         2.56094353864632   -7.68582595705847    3.01287005957129
H         1.17242100978320   -8.80083400070296    3.00606245764868
H         1.95017855872794   -8.35144380312350    1.46882856269563
H         3.09148430247693   -6.26472000175899    1.17695008117730
H         1.71136709786853   -2.39275489125481    0.02770904043952
H        -2.10546198803058   -3.97473812408436    0.23681997443486
H        -4.38114636705239   -3.07474352612999   -0.55886510648989
H        -5.89372143091732   -1.09833546045601   -0.80398998253105
H        -3.18754194890561    2.63142505891600   -1.07185774869584
H        -3.97532049167256    3.56454827330179    0.23760281741234
H        -2.26786122487745    3.84844848574004   -0.16754547382882
H        -0.90497923615768   -5.05099236090216    2.16568773905331
Cl        0.15516491863969   -0.15314326641381   -0.56163947211161
