71
 energy: -130.585971753493 gnorm: 0.000521033078 xtb: 6.4.1 (afa7bdf)
Ir       -0.03917588456750   -0.53269821688040    1.46792608934431
C        -1.40959429860442    1.80406563086098    3.58820749006720
C        -0.20576196074562    1.08260547680510    3.09116001419840
C         0.31367134502617   -0.14495426640912    3.64642475428230
C        -0.23035501116083   -0.86711549019134    4.82839489476609
C         1.58606715506116   -0.40073031542383    3.03738672543098
C         2.56446780154529   -1.41509547921287    3.51216112985846
C         1.79176606499438    0.57087295941966    2.00901874325699
C         3.05665157349800    0.79127171760447    1.25369142392874
C         0.68382529909157    1.52283920604508    2.07759921032522
C         0.66910394324787    2.85080657832311    1.43890740822480
C         0.62961060730122    3.97759357768789    2.25963174273898
C         0.65780388591916    5.23258636150657    1.68172345112364
F         0.62547807922543    6.31474047161803    2.48580022889835
C         0.71771276085925    5.42157568282295    0.31284066311910
C         0.75202251886686    4.28347662229814   -0.47372662222655
F         0.80577147801002    4.42856956508694   -1.81276902775420
C         0.73497783151649    3.00762485722117    0.05756692047094
H        -1.17214525397085    2.27358867322027    4.54369080167934
H        -2.23980140769540    1.12217998047515    3.76132389878425
H        -1.71587499446216    2.58173358843639    2.89317475732375
H        -0.26029847952764   -1.93854022342899    4.64152895014583
H         0.41618550728698   -0.69069597451182    5.68772058003108
H        -1.23200655923782   -0.52691750669288    5.07004988010076
H         3.15407009131213   -0.97320704148308    4.31624868765769
H         2.05243025990378   -2.28782762462408    3.90709413281967
H         3.24197496389520   -1.72035411375710    2.72041927054888
H         3.59326530746164   -0.14243038210662    1.11250016728482
H         2.85982030620181    1.23991226279462    0.28447650241425
H         3.69252451758999    1.47342670620841    1.81896354549456
H         0.59910327168473    3.88955169318930    3.33302675716547
H         0.73640404326734    6.40757185812370   -0.12031158438220
H         0.73769560504400    2.15350611650077   -0.60050785142548
C        -0.48718518591749   -6.42867483735704    4.24064789399779
O         0.41104196528190   -5.96097020790443    3.23267148073506
C         0.38265554390910   -4.67456187862893    2.92290906685788
O        -0.36889089945460   -3.86357520293083    3.41994848940522
C         1.41288714964138   -4.32124900635404    1.90410720597372
C         2.60401012228270   -5.03476602374579    1.86229167640116
C         3.63649252495356   -4.64920860235041    1.00520923810443
O         4.81190039070514   -5.27726712814161    0.88753264064391
C         5.05923593840524   -6.44965677280578    1.64671046812887
C         3.46067006336840   -3.50529805600812    0.20878318372886
C         2.28894089828596   -2.78957766877791    0.25303774053195
C         1.23948180534401   -3.19465849098899    1.08424585779164
N         0.03607149290334   -2.48322634575981    1.05277335193956
C        -1.06990769433817   -3.07720163153782    0.72794821187002
C        -2.25216088550472   -2.27283230177022    0.70819197827888
C        -3.50747072410655   -2.70976744873895    0.27517424943799
C        -4.56241840174237   -1.81998597229141    0.25740318972106
C        -4.32208431835475   -0.50713136953991    0.66774463859238
C        -5.40859067867270    0.53625719005150    0.66989245882023
F        -5.48882445863448    1.16541351747668    1.85610706202215
F        -5.18489120248677    1.49575082367610   -0.24552469696722
F        -6.61852108488551    0.03126291241465    0.41525424924106
C        -3.05062909356284   -0.13513751700126    1.08173765740540
N        -2.04260435257921   -0.99460741861737    1.11515155004713
H        -0.69733064136963   -7.46915186173620    4.00684009501764
H        -0.00642640621836   -6.35144111682998    5.21681988066989
H        -1.40142668189549   -5.83421942204646    4.23792606195696
H         2.71032002700336   -5.88281756865143    2.51788682435382
H         4.33417254167970   -7.23206452135173    1.41156795205063
H         5.04539594375305   -6.23545977496993    2.71806136404990
H         6.05490744001440   -6.77704741442790    1.35530903367329
H         4.26560592437438   -3.20928614322085   -0.44401393203601
H         2.14299541030609   -1.92745386955829   -0.37962867448288
H        -1.09447272089757   -4.12312750355825    0.44774020130229
H        -3.63849278095646   -3.72960493612723   -0.04879386437394
H        -5.54611202084234   -2.12179823468550   -0.06776564833655
H        -2.84941799364977    0.88124690963425    1.38956457690060
Cl        0.00001167604826   -0.20660805634005   -0.89218044917822
