84
 energy: -130.753468149697 gnorm: 0.000146333783 xtb: 6.4.1 (afa7bdf)
Ir       -0.90323001233428   -0.55305012644015    1.95979657999025
C        -1.87858934761924    2.99730694220759    3.48736717654361
C        -1.02886435454975    1.79061840448571    3.67274082828398
C        -1.58145511516768    0.43379038657808    3.90477388061949
C        -0.50779000078434   -0.43950699916038    4.09498620679299
C        -0.55883213502029   -1.76507618977969    4.79305056536236
C         0.79443420139397    0.34553687367978    3.98780805469853
C         0.32098714908323    1.76162976459631    3.73541556431698
C         1.22579657422227    2.89141539842822    3.49696902903359
C         2.06740600661813    3.38452958960530    4.49049104836926
C         2.87561070719112    4.47752235482432    4.24579163488028
C         2.87252994190400    5.10848846381993    3.00333369530452
C         3.71851460055667    6.28529001414569    2.75344658362566
C         4.39163580589487    6.43682774415579    1.54280517777452
C         5.18123873529300    7.54803124769840    1.31038395161989
C         5.30749474801860    8.52898037381510    2.28052927528685
C         4.64010734643486    8.39040117828155    3.48672713277466
C         3.85508512454283    7.27697032499729    3.72304817150582
C         2.03414954445727    4.60802887235321    2.00866747210173
C         1.21975809492604    3.52084345958417    2.25289486283755
C         1.81594070651388    0.14352794805244    5.08084444299323
C        -2.93430465737316    0.19958746979138    4.52422243870603
H        -2.50959298754194    3.14787745560828    4.36197047490216
H        -2.52225300928798    2.88546134457403    2.61702657672464
H        -1.25692308287172    3.87815882823835    3.35458248138152
H        -0.51292253483928   -1.60463210564331    5.87118086901381
H         0.28241725467679   -2.39427156180388    4.51128566917480
H        -1.48590111028889   -2.28720920700825    4.57190562048305
H         2.06923341399961    2.93430160249965    5.47076821739851
H         3.52676547940602    4.84343063598825    5.02593472724527
H         4.31123120605312    5.67002268081211    0.78595575581471
H         5.70239357370991    7.65006527235314    0.36924304634396
H         5.92244222562286    9.39792153397153    2.09720315993216
H         4.73128839225073    9.15461961934606    4.24530130409470
H         3.32478539389756    7.18554518515818    4.65987117533159
H         2.00406119712083    5.09341660205078    1.04436177607710
H         0.57127971287004    3.14901762847727    1.47319008771817
H         2.07391046601155   -0.90742732897974    5.17915443505950
H         2.71944348705564    0.70549069953670    4.85794780994028
H         1.40219857804974    0.49448685357850    6.02376608687828
H        -3.59743243728357    1.04506276220995    4.37333115196973
H        -3.40648108025342   -0.70503535365571    4.15101763010149
H        -2.79620617320565    0.08141108128779    5.59982677014172
C        -7.83781806117803    1.87219421431666   -2.16865897301315
O        -6.77165177212075    1.48516506412943   -1.30441365377117
C        -5.78295000477222    0.77699573027255   -1.84388498962600
O        -5.73843162793624    0.44580090317801   -3.00722296859665
C        -4.72739184626628    0.43669442373304   -0.84995759875985
C        -4.77909135849314    0.85463210175998    0.48398047880077
C        -3.75706112717722    0.50059501659808    1.34058301218068
N        -2.69285201839223   -0.22400132824824    0.97738653811304
C        -2.63449514954256   -0.62606158748130   -0.33292785134901
C        -1.48108670542670   -1.39544683338329   -0.65350180132180
N        -0.58396165563156   -1.49486481468656    0.29077926121787
C         0.52997685913702   -2.32464899586644    0.09357055575998
C         0.89212324271894   -3.20777364086076    1.13540219475655
C         1.94387943140669   -4.06126129422379    0.98201040819571
C         2.70559402192227   -4.07175245722594   -0.20855978437734
C         3.79072635585145   -4.95086000321164   -0.38284768218023
C         4.51073385054415   -4.94739674920833   -1.55569454072676
O         5.56438492544247   -5.75136996812607   -1.83543126067946
C         5.97867767886851   -6.69307231740187   -0.86627171981006
C         4.15917147473638   -4.04443877715631   -2.59003193669906
C         3.11570152843078   -3.18351996520122   -2.43966688087034
C         2.35173490005759   -3.17239864140334   -1.24954721506939
C         1.25340209184495   -2.31320138156525   -1.07859798937982
C        -3.63733445746954   -0.31831826414356   -1.25088606865486
H        -7.47257513650445    2.56406950838412   -2.92962183730785
H        -8.26086824582853    0.99609908225181   -2.66313991766345
H        -8.57662162191658    2.35366751745033   -1.53452340505227
H        -5.60955634954557    1.43986104183664    0.84016926853129
H        -3.80493118277018    0.80420687931097    2.37098801746530
H        -1.38643473844259   -1.91688421607721   -1.59684462175840
H         0.29131515215283   -3.21982123046630    2.03338791822004
H         2.20485675210163   -4.75021928210859    1.77093651447312
H         4.03442843382738   -5.62419586949216    0.42353655659831
H         5.18173865006005   -7.40835438625475   -0.64339381153489
H         6.82263392714996   -7.21739491723335   -1.31018776112124
H         6.30080435208916   -6.19857668488977    0.05456815979138
H         4.74664683996046   -4.06864736486942   -3.49415713373460
H         2.85549067778754   -2.50175764814784   -3.23540315182840
H         1.00193181317019   -1.62089050790235   -1.86844374995464
H        -3.56138031086322   -0.65261738969517   -2.27331864405280
Cl        1.46172278160144   -0.28182469124534    2.40371946575265
