59
 energy: -91.912924448895 gnorm: 0.000293807698 xtb: 6.4.1 (afa7bdf)
Ir       -0.68186570503689   -1.05861482535716    1.23336462143586
C        -2.14238976349093    1.23494978845487    3.35906925991844
C        -0.95088069394593    0.46538509817120    2.90383200755507
C        -0.52853885679743   -0.79673878985513    3.46276023456694
C        -1.21293726841659   -1.50072775823231    4.58478442596414
C         0.80280509356256   -1.06718980732458    2.98467510886050
C         1.75612911998884   -2.07058879934795    3.53346202098729
C         1.13757390156109   -0.06103647036187    2.03644117784856
C         2.46954358279433    0.13168644043542    1.39950127822451
C         0.04715018272481    0.90040666547255    1.99156740998244
C         0.12120812289037    2.21229886080619    1.28822260464716
H        -1.90383661061582    1.70449688111917    4.31447547874980
H        -3.00341448860367    0.58962924712818    3.51616160312467
H        -2.40151685634005    2.02515012992659    2.65967851788835
H        -2.29175571247400   -1.39464028355126    4.51534143293024
H        -0.96657282658920   -2.55840210064558    4.59758419449612
H        -0.89029327080029   -1.06381266832290    5.53082935241829
H         1.26101607277281   -2.75801593680987    4.21061721571076
H         2.23927008438791   -2.63770995589118    2.74096295497758
H         2.53164529646889   -1.54066887479775    4.08708840479633
H         2.36187141381010    0.50163453110530    0.38273546112548
H         3.02920250545743   -0.79869389882986    1.37736865028808
H         3.03724423787211    0.86845021812369    1.96907260191333
H        -0.85060611172729    2.69358864820450    1.23087989392481
H         0.50383433603994    2.08256406959124    0.27819518174535
H         0.80402929322041    2.87096945543358    1.82540142427446
C         3.97129595222504   -7.15544761352104    1.74149323761932
O         3.54890048091356   -6.47481251328997    0.57538122642143
C         2.49600320208054   -5.63670243223585    0.65411924665201
C         1.76512504467031   -5.36899183601903    1.80328920750796
C         0.70700655518129   -4.47422540764624    1.78243398951994
C         0.34469206514565   -3.85830634610669    0.59359568724752
N        -0.74871048998394   -2.98506728169170    0.55228680418324
C        -1.73805592335243   -3.25273294211885   -0.24550203632220
C        -2.79192475021459   -2.29407182223065   -0.32331682575821
C        -3.92780333854022   -2.42478824431530   -1.12988162730822
C        -4.87097066234620   -1.42132407366576   -1.14290198264525
C        -4.64300551492717   -0.30173133335960   -0.34139979118514
Br       -5.89829841875545    1.12804931007809   -0.28625638478458
C        -3.49717998925665   -0.22474398574018    0.43405739188918
N        -2.59153748283454   -1.19628666131871    0.45393777040528
C         1.05296820384421   -4.13630940584446   -0.58314121814219
C         2.13424247444015   -4.99495597273350   -0.56342781082469
O         2.90503013559107   -5.30302490921739   -1.63059812889929
C         2.61065331613730   -4.70559252072227   -2.87723998214317
H         4.30417502412544   -6.45414884332927    2.51139614776271
H         4.80997024428080   -7.77321537474240    1.42715932747959
H         3.17747235733287   -7.79425441695359    2.13780284067523
H         2.01441608001983   -5.85765969653629    2.73031113497086
H         0.12799061839906   -4.29728805052004    2.67261448504807
H        -1.76476961835900   -4.16620875428206   -0.82756731860691
H        -4.04691061535997   -3.30462704062356   -1.74117395173594
H        -5.75662195162801   -1.48942903240695   -1.75426848747166
H        -3.31726265706906    0.64179786338091    1.05143012637127
H         0.76391144673514   -3.62424352655613   -1.48615721307649
H         3.36685416116899   -5.08115833797650   -3.56354191149765
H         2.67764805900482   -3.61558530225108   -2.82327735737597
H         1.61881143315200   -4.99768603560929   -3.23348370564275
Cl       -0.09828352052103   -0.54156532456111   -1.02438440868304
