77
 energy: -109.965174793405 gnorm: 0.000388549995 xtb: 6.4.1 (afa7bdf)
Ir       -0.36954195953032   -0.78155691303003    2.06002352819300
C        -2.20213411303534    0.91944257343286    4.42220169659913
C        -0.90904153450861    0.30614528951708    4.00875000073281
C        -0.53156842962252   -1.05476522873607    4.26766572103198
C         0.86095700619290   -1.20135645979902    3.92018815472253
C         1.74771470483683   -2.32465061542034    4.33909638038033
C         1.29758944527620    0.01722209465765    3.33298368598162
C         0.19368029375936    0.96249397612065    3.38779803372252
C         0.34042727125427    2.41287168233229    3.18281310246351
C         0.09070375893746    3.27507686723480    4.24994277281506
C         0.28372646804773    4.63477916205013    4.11085277395340
C         0.72897469543131    5.17480251011272    2.90553305710665
C         0.95637446418234    6.62100633096760    2.76711413622236
C         2.07692433868168    7.09677120488526    2.08887683212563
C         2.30043421540329    8.45565461248396    1.96518873715655
C         1.40492650722965    9.36159563653557    2.51002241706276
C         0.28636642906547    8.89960932542549    3.18429631312050
C         0.06525026153680    7.54087480674598    3.31576796973068
C         0.96402346770056    4.30997132506806    1.83790926674339
C         0.77466891759319    2.94922185668185    1.97252462367883
C         2.70060742933776    0.36930378374364    2.97843910614148
C        -1.34191431397160   -2.02674536499974    5.05811376289989
H        -2.23143321633008    0.98026754032307    5.51045258483347
H        -3.04780741890325    0.31307504184260    4.10487451470111
H        -2.31133446303246    1.91943082150333    4.01315005961029
H         2.26033628935717   -2.02921832959127    5.25590604110663
H         2.50879032472399   -2.53763254491104    3.59312462659214
H         1.17949095539267   -3.22546632959808    4.55194259983555
H        -0.22477983164379    2.87436946369957    5.20107990386042
H         0.11242062757995    5.28615726976722    4.95475555893734
H         2.78848943617088    6.39704597710749    1.67492724454274
H         3.17721662206134    8.81095139294782    1.44311906075996
H         1.57896453527383   10.42296081980846    2.41022583191644
H        -0.41655051091293    9.60222692383319    3.60824631244809
H        -0.81610084677154    7.19052327671874    3.83300795630780
H         1.28355580191280    4.71079573353471    0.88750746376515
H         0.94199242851527    2.29900668697783    1.12695302728316
H         3.29871754378019   -0.51932243800374    2.79680833380316
H         2.73229713256497    1.00282976578229    2.09615285844401
H         3.14602944457344    0.92414360161007    3.80514439224251
H        -2.40435823084379   -1.86968577477809    4.89457093668499
H        -1.09527958105037   -3.05338248764974    4.80152716591957
H        -1.13807655468548   -1.88453509117107    6.12028024742872
C         4.53098099743289   -2.42311674305078   -0.33578772592209
C         4.30470213485443   -3.59525443740308    0.22775217627162
C         3.00450726205676   -4.08554242890549    0.79342890758672
C         1.85384995234097   -3.09208329712840    0.66964424360602
C         0.58137600293606   -3.63202451286586    1.33286729575682
N        -0.47844867234145   -2.65794068929402    1.26978279870108
C        -1.55483466408364   -2.93746900734135    0.62308798378961
C        -2.54974685685714   -1.91087383905180    0.50026353126244
C        -3.77503721607184   -2.11448422989179   -0.16245833254085
C        -4.65456612816816   -1.07438685624979   -0.26584448142573
C        -4.28030769514908    0.19632422003705    0.21971837727509
C        -5.10988671344165    1.32657045472076    0.08079687055387
C        -4.68823758818666    2.55956114014660    0.49937220211282
C        -3.40857425842530    2.71102166142673    1.05576868641232
C        -2.58950194348157    1.62868161239431    1.23276569113726
C        -3.00616154521520    0.34111145536348    0.84729127102618
N        -2.20222439127681   -0.73516172513231    1.04032831166055
H         5.50616995724462   -2.16476328537512   -0.71305100320208
H         3.76887298854971   -1.67265209802867   -0.45442264704900
H         5.11372751895226   -4.31071941619526    0.31416034809207
H         2.74444800958877   -5.01725131312724    0.28225862331425
H         3.16775285033707   -4.34079200077969    1.84528969510435
H         2.12718662935576   -2.14493302860324    1.13542680544275
H         1.65071068602796   -2.89378050603923   -0.38291168305896
H         0.27094997115432   -4.55775863076719    0.83777466022454
H         0.78887936555405   -3.84883300136151    2.38273378719186
H        -1.70721225303938   -3.90118209810254    0.14759052301701
H        -3.99822659241112   -3.08897683887402   -0.56420015464392
H        -5.61828506999615   -1.19972869943794   -0.73474793095134
H        -6.07759144839866    1.20031336285783   -0.37987964874557
H        -5.32525402758213    3.42238967572509    0.38409926201313
H        -3.06499901887951    3.69288588084744    1.34155087712606
H        -1.59374871477787    1.75673680945766    1.62274414300617
Cl        0.52151365985775   -0.03901436569837   -0.02452225774603
