81
 energy: -130.081351515710 gnorm: 0.000432783662 xtb: 6.4.1 (afa7bdf)
Ir       -0.76789332295330   -0.56284006899628    1.64822704281563
C        -1.74696673774940    1.44558204680730    4.28589481355576
C        -0.73386375524477    0.56511520096683    3.64465713802422
C        -0.66095859083099   -0.86034539671667    3.85185951990149
C        -1.55530320866934   -1.63343547943731    4.76099263512158
C         0.58239688014987   -1.31979748022752    3.30507706765150
C         1.20034857613219   -2.65184857068388    3.54060536250248
C         1.20319884802927   -0.22715100839267    2.63288637718226
C         2.58989268991621   -0.23865818392333    2.09070190094935
C         0.39145370015560    0.95828734592043    2.86807112093461
C         0.84719261500618    2.33049278731684    2.60076163739799
C         0.93603170358540    3.24047767957592    3.65352411390558
C         1.42158067528338    4.51030712631903    3.40457008181853
F         1.50647154269250    5.38257978054283    4.43065090612678
C         1.82448900589400    4.92307800314977    2.14723851514728
C         1.72139392581606    3.99748496822400    1.12315969819410
F         2.09811433017873    4.36655236676771   -0.11832313590916
C         1.24601577555433    2.71599786329847    1.32174453956758
H        -1.68567348557710    2.45900257307843    3.90486784366575
H        -1.56161825644234    1.46282877199809    5.36060831485612
H        -2.75279970692868    1.06332226765075    4.13324839278144
H        -1.53946037316867   -2.69232913259467    4.52002137056163
H        -1.21093154101216   -1.51508414550623    5.78894039866778
H        -2.57749286975019   -1.27064747007095    4.70453486427822
H         1.73053640008292   -2.62129823193498    4.49341162305746
H         0.45239732858414   -3.43750406818352    3.59648330452501
H         1.91852176684439   -2.89577279686862    2.76315322385206
H         2.73402456997572   -1.05282359308747    1.38401524125704
H         2.82515818210039    0.69700547097306    1.59295020022771
H         3.29274393994354   -0.38260471662768    2.91197697455275
H         0.66153760050655    2.96614068963508    4.65874834553993
H         2.20214617899636    5.91667122865705    1.97362212167575
H         1.15962371738953    2.04055818092316    0.48495164898184
C         2.44035828318525   -7.85330373300697    0.73345187262400
C         2.68983674295832   -6.45514247540779    0.28324665452142
C         3.85636704234065   -6.08884195206356   -0.29785725825076
C         4.13000239237951   -4.73931310574047   -0.74129854995572
O         5.16110554936958   -4.36514836876701   -1.25663396874922
O         3.14265937119831   -3.81134313038915   -0.55151753838063
C         1.95846551534762   -4.13975515177123    0.01341693171942
C         1.02332385903823   -3.11650966006624    0.14504676885170
C        -0.21593931767942   -3.38363025220858    0.70549695408126
N        -1.16852855498172   -2.36202066020764    0.83092672406920
C        -2.38719220848316   -2.58200843543700    0.46875518387582
C        -3.36262089035324   -1.55054625372489    0.66586970516168
C        -4.70769822435526   -1.80351641481892    0.45782622940372
C        -5.61764305125528   -0.79478991390458    0.76343846282825
C        -5.13931893627417    0.42174151873408    1.17023395359348
C        -3.74293169963329    0.67461647248198    1.26127948172506
N        -3.29334745303912    1.91272751385392    1.55323261076715
C        -4.17879351548533    2.96562919833583    2.02787755346467
C        -4.70807589371741    3.81669096614184    0.87217982646236
C        -3.52655010050236    4.41778469393003    0.11368714164305
C        -2.56924647126673    3.30791372715711   -0.31199176664392
C        -2.12802880996291    2.47850712943832    0.89801258704207
N        -2.87431265707167   -0.35330660766564    1.09480585201328
C        -0.51147725065713   -4.67765426557588    1.15881434143418
C         0.41928527644401   -5.68147556853887    1.03878746779354
C         1.67224129308718   -5.44251587495955    0.45808555069265
H         2.24327489376896   -7.87597096370098    1.80370687471674
H         1.57495673992796   -8.26664282962159    0.21853905218209
H         3.30281389524478   -8.47865850496050    0.52368020994886
H         4.65589473772639   -6.79310259586025   -0.46401587047723
H         1.25804841731634   -2.13299069758886   -0.22870334874701
H        -2.68091769832696   -3.52120460031082    0.01223148893660
H        -5.02950331073231   -2.76349651748548    0.09285384038517
H        -6.67793801410695   -0.96046851064736    0.65833031667610
H        -5.83417275530592    1.21867836148844    1.36688569027796
H        -4.98472488429699    2.54653788973037    2.62768517297368
H        -3.57810591941067    3.60420159863048    2.68184013758413
H        -5.35021927066829    4.60628766221912    1.26297516297291
H        -5.29866845664927    3.20168671089787    0.19092102335075
H        -3.87872839919955    4.96421616721951   -0.76220170152955
H        -3.00017783575192    5.12633085523075    0.75696236591737
H        -3.05897416846078    2.65282023168447   -1.03530278012419
H        -1.68458859306837    3.72951235758491   -0.78970483026747
H        -1.46233985221805    1.68605276260791    0.56676158595190
H        -1.59998507459987    3.11983952751786    1.60656904910004
H        -1.46606323364862   -4.87542989492803    1.62047424753588
H         0.18126993321361   -6.66984155224640    1.39497915183283
Cl       -0.13346754588003    0.02006913815998   -0.60018381432908
