75
 energy: -122.290602938489 gnorm: 0.000528476611 xtb: 6.4.1 (afa7bdf)
Ir       -0.44210346284270   -1.13036210997081    1.41405763414671
C        -1.84546977187728    0.85243117725197    3.84548114329563
C        -0.65060161853846    0.18930572224473    3.25418769971152
C        -0.23060697877954   -1.13561506062370    3.64163180808813
C        -0.89104688116721   -1.97541681850610    4.67852000694001
C         1.07267680186672   -1.37393715478422    3.08456093133388
C         1.96375837391785   -2.50646035202705    3.45650815703925
C         1.40788278015865   -0.25297915414450    2.26847555316942
C         2.72153187711273   -0.00658353909289    1.61052216070875
C         0.33205633788619    0.72934264159705    2.37477247855776
C         0.46989126684213    2.13937530951441    1.86723871974235
C        -0.69968641568294    2.64237969936396    1.01345637094097
C        -0.38255235393519    4.03711961999123    0.48015047059981
C        -0.12292137521539    5.00474004844905    1.63234984596424
C         1.01892466045681    4.49885076340973    2.51022324528910
C         0.71235517163820    3.10161075703758    3.04226003661204
H        -2.70424390355083    0.18453754203077    3.85475712096418
H        -2.11148422738707    1.76596700009305    3.32632809812600
H        -1.61701748557368    1.10362057525307    4.88227316038223
H        -0.63813895398821   -3.02442860143092    4.55434593056535
H        -0.54436169309529   -1.65978251745239    5.66339727107652
H        -1.97126194779433   -1.86484753143547    4.65228912729872
H         1.40129014742693   -3.42415862945838    3.60489767891264
H         2.72559617760118   -2.68062435777437    2.70361783535624
H         2.45952589786381   -2.25822534392216    4.39573113985446
H         3.32034097518594   -0.91117953015296    1.58257914787133
H         2.58352836496072    0.35514654368629    0.59368862455799
H         3.26669753044329    0.75272680830374    2.17116377227219
H         1.35636006045765    2.16882166904407    1.22698243885227
H        -1.61658950749427    2.70230844066673    1.60038324656302
H        -0.86034536696701    1.95555223126078    0.18102944079926
H        -1.21668191420863    4.39647223461057   -0.12572833079502
H         0.49863273795982    3.99215567056798   -0.16325268925444
H        -1.02923177894282    5.10612341023928    2.23419962919180
H         0.12280583736645    5.99242585445513    1.23769549951599
H         1.17461003035251    5.18207057410253    3.34729890912988
H         1.94037611179924    4.47526357797495    1.92416268191017
H        -0.17239593973106    3.14494034225074    3.67728050404138
H         1.54633753418762    2.74371142084946    3.64819303387090
C         5.01613975132190   -6.42558420307893    0.41124961117443
C         3.63783598406071   -6.76015798002646    0.86621526343259
C         3.32141065073291   -7.98976078454492    1.33670587472881
C         1.99308164534631   -8.34984965820695    1.78260363188518
O         1.66357861488878   -9.43315580126253    2.21230643446524
O         1.03138977248270   -7.37715816902995    1.71079534637943
C         1.30616020863494   -6.14050235647422    1.24176506288800
C         0.24531052937805   -5.23901956695614    1.19896329273541
C         0.46279957807175   -3.94376380764752    0.74880790320634
N        -0.58857791425878   -3.02031709228037    0.69847664167873
C        -1.70621309237975   -3.35095040040201    0.12441337285409
C        -2.73243215450202   -2.35737542425443    0.08841673485059
C        -3.95086132350144   -2.50067524308933   -0.58387291224094
C        -4.84648478093413   -1.45294322905597   -0.58498765838201
C        -4.48951945915314   -0.27984532990476    0.08883099026438
C        -5.43911525617610    0.88934068235607    0.09871231056366
F        -6.67992226306947    0.52348449568400    0.45665618570492
F        -5.06186244871793    1.85576307156869    0.94536328020642
F        -5.54609259590068    1.45801233341306   -1.11367775012691
C        -3.26456447834956   -0.19757717845650    0.72932580467848
N        -2.40557343002458   -1.21077919107131    0.74069145799217
C         1.74028966639954   -3.55030377790286    0.32981241878642
C         2.77650853885326   -4.45309449986359    0.34853549930530
C         2.59025240020562   -5.76413536337299    0.80999783421177
H         5.00449888862843   -6.12963701844389   -0.63646251882552
H         5.67071523710676   -7.28456617828860    0.52340942706489
H         5.41933805734645   -5.59944713671316    0.99384467504460
H         4.05435821149076   -8.77786115778880    1.40430309001529
H        -0.72316020265414   -5.56103457044757    1.54653743237584
H        -1.83973802357925   -4.31589010122443   -0.34960840315001
H        -4.17125814015142   -3.42052333474086   -1.10070825366622
H        -5.79704051698237   -1.52507114762626   -1.09057938391055
H        -2.96916420375832    0.70500024537659    1.24360325209271
H         1.87910432646469   -2.54863405025612   -0.04696918563317
H         3.74996193258087   -4.15008608434896    0.00082210778607
Cl        0.04658719138979   -0.47574692506862   -0.82183140359444
