68
 energy: -108.232855444186 gnorm: 0.000379356961 xtb: 6.4.1 (afa7bdf)
Ir       -0.57575786179415   -1.03494401559289    0.87794392489258
C        -1.65322237115552    1.70388474919854    2.64987441806690
C        -0.55478605080853    0.78741180124256    2.22592104080939
C        -0.11900458040442   -0.38122167328856    2.95838628443695
C        -0.67753867311667   -0.87644983476892    4.24818218279488
C         1.11422208367945   -0.83129041966164    2.37785697269953
C         2.00926878622906   -1.86028641786608    2.97412578670401
C         1.37161747132232   -0.04006133559519    1.22221841450772
C         2.61029031233329   -0.04800665488882    0.39126257812364
C         0.34685467235335    0.99033699260219    1.15024304990536
C         0.39386886377076    2.14540430137574    0.20905514644239
H        -1.26484399287947    2.39431001398853    3.39992849949228
H        -2.47909070770493    1.15479312887244    3.09520991279367
H        -2.02415011135098    2.29127023233646    1.81412765728753
H        -1.65331131297558   -0.44515597873609    4.44768536812078
H        -0.77235257166402   -1.96023166954946    4.22835333309608
H        -0.00516423717510   -0.60884615761080    5.06322845367039
H         1.43025574235610   -2.62150337088510    3.48943469896723
H         2.63125671641591   -2.33403181737086    2.21959661571004
H         2.66162703090237   -1.37693154958750    3.70217119815779
H         2.37350892649464    0.15763449381841   -0.64986062994810
H         3.11947883830736   -1.00537604741739    0.45425585138402
H         3.28735074119807    0.73006238464168    0.74506846374899
H        -0.51247631611140    2.74077455060434    0.26170117623777
H         0.52243718583802    1.79928505987026   -0.81469572907144
H         1.24477317881326    2.77874658404293    0.45994133629445
C        -1.02394171812771   -6.52610787907468    4.30606447148618
O        -0.17318896878904   -6.22460291904973    3.19915916282343
C        -0.17882410174670   -4.98093781058908    2.73477429912743
O        -0.87278863575636   -4.09210302064343    3.18050047543935
C         0.78934503137091   -4.79532146431481    1.62034977997584
C         1.95292275937068   -5.55812021045575    1.58941392943609
C         2.92833009995288   -5.32531160821248    0.62276071825373
O         4.08003884490346   -6.01060667670102    0.50769299055414
C         4.34460756895790   -7.07641849908418    1.40311888302278
C         2.72892598312661   -4.29154959426543   -0.30502420960623
C         1.58177180151306   -3.53492880674217   -0.27907683727507
C         0.58865489868985   -3.78292645711239    0.67118245991765
N        -0.58885387723046   -3.02865345418501    0.63820708403100
C        -1.73341940778392   -3.59657670475229    0.42858714050066
C        -2.87780542691260   -2.74407431377090    0.41222253460519
C        -4.18137748009600   -3.15339601445190    0.10902888891911
C        -5.19326615419248   -2.22397151816804    0.07541001146204
C        -4.89353354428556   -0.87648035882047    0.33918256016817
C        -5.89631604966975    0.15413716009261    0.30796536603555
C        -7.25082194925098    0.10658399658699    0.04735495208804
C        -7.72103346962626    1.42925194871810    0.14869754861045
C        -6.63149337000915    2.19188155974424    0.46196750027155
O        -5.53342416142419    1.43703260289928    0.56048547834973
C        -3.56503944985431   -0.55042025535705    0.63953957571616
N        -2.59317030911441   -1.44460734601141    0.68356551209156
H        -0.49508324581345   -6.32098580164818    5.23835770746418
H        -1.25953085878264   -7.58465026944891    4.23263289808761
H        -1.92940649280530   -5.91927942373917    4.26165543208588
H         2.07905021800639   -6.32132662011590    2.33874783482912
H         4.40574448797084   -6.72023879134880    2.43461979422936
H         5.31025235133604   -7.47510974859573    1.09965969661123
H         3.58517713089118   -7.85804684597828    1.32316402403790
H         3.49418232252526   -4.11170463420330   -1.04247705539696
H         1.41732803286118   -2.75365713442541   -1.00494280119125
H        -1.81755375095529   -4.66087961959318    0.24095516551744
H        -4.37159475583747   -4.19234537180306   -0.10629812608663
H        -6.20222969183937   -2.51950666870301   -0.15933759871307
H        -7.83658344339609   -0.75807725995690   -0.18616887665001
H        -8.72615294467743    1.76849374753880    0.00822477574759
H        -6.52390121420955    3.24517785667984    0.63121475054057
H        -3.30485962949042    0.47738783352785    0.84267424242076
Cl       -0.61171819268535   -0.86401795421987   -1.50759314484678
