79
 energy: -106.413230114169 gnorm: 0.000833279656 xtb: 6.4.1 (afa7bdf)
Ir       -0.54845230763742   -1.40553953299109    1.59990074413404
C        -1.84264291733085    2.20888707845551    3.03003141704653
C        -0.61443705694255    1.40161717757144    2.85614896595524
C        -0.55720559969300    0.00396121464932    3.22824557028854
C        -1.40494232671824   -0.50315393375290    4.37799746300981
C         0.81525469899896   -0.43661985180034    2.97553397955857
C         1.56660732043409   -1.32275244465397    3.94582732760199
C         1.49707133487171    0.71129770306908    2.39033476482036
C         2.88619762385570    0.67737737615853    1.87804645623387
C         0.63559169407366    1.81151503000459    2.36466355705220
C         1.04343655446158    3.16736397500360    1.86170339776243
C         0.33384893729296    3.56994532513334    0.56260659520672
C         0.88381376424008    4.90018848948749    0.05618213480813
C         0.71642033114526    5.99012616786330    1.11219301589718
C         1.41194516640098    5.58811419944508    2.41033641248917
C         0.86195086632253    4.26014018604775    2.92421417838453
H        -2.72113108392138    1.62788490258153    2.75631383032991
H        -1.82289129923752    3.11418497024251    2.43469658601129
H        -1.94510944412914    2.48821499208513    4.08055776854110
H        -1.03342056974889   -0.07705821213986    5.31064932134864
H        -2.44188951309385   -0.19990333440411    4.26489110037597
H        -1.37100623257189   -1.58672998969892    4.47345041678045
H         0.97367574398997   -2.16601165709114    4.28778070233514
H         2.49319420309296   -1.69411685073144    3.51714043646541
H         1.82499200137024   -0.72412548676764    4.82069683501829
H         3.28930091193385   -0.33029529750372    1.89642101796606
H         2.92022364207662    1.04881138908627    0.85499509676666
H         3.52456157231102    1.32030331836333    2.48477814463264
H         2.11324679468083    3.12049703838736    1.63574389882998
H        -0.73947340193473    3.66681058285079    0.72563247919452
H         0.48233290989097    2.79091393924895   -0.18670574289239
H         0.36550030026078    5.18941788392121   -0.86095163475336
H         1.94455002439822    4.79136975725733   -0.18352443355532
H        -0.34754759704371    6.15017702019744    1.30396711419169
H         1.13135431519049    6.93146109710699    0.74433707635104
H         1.26782247702116    6.36502208031077    3.16494691157249
H         2.48588695174710    5.49652165230651    2.23009848215796
H        -0.19214424371052    4.38602333491218    3.16749303057452
H         1.38528059643549    3.97137221081594    3.83838453279785
C         4.09373596670824   -4.28888731598344    1.96909445156435
C         3.10077383687182   -4.29323826663253    0.81065989334257
C         1.70615374784653   -3.76820208375249    1.18493155050623
C         1.03342563103744   -4.67270939851322    2.22586290147202
C        -0.38960398785827   -4.27240531699291    2.60950150813185
C         0.87451163839099   -3.61309468481652   -0.09353477358779
N        -0.33400004212210   -2.86664614439678    0.13204134346020
C        -1.34470191278001   -3.04159572208725   -0.63559243218994
C        -2.56257053298886   -2.33961811631384   -0.33395057384378
C        -3.69964821181459   -2.34975636605896   -1.14424878321096
C        -4.81985763146041   -1.65546745594510   -0.74340694361168
C        -4.79732959176276   -0.96413989940448    0.47662569279495
C        -5.92943331246033   -0.22131974725875    0.96488132949795
C        -7.18426793933429   -0.00799601372958    0.43546740195211
C        -7.87224809326164    0.80283815521218    1.35886060966963
C        -6.99877840766452    1.02884009167965    2.38357593414581
O        -5.83083313446468    0.41940292815358    2.15733537015442
C        -3.61523666062241   -1.01646443512339    1.22763702237962
N        -2.54297432055674   -1.67541836183562    0.83981371231113
H         5.08318265453917   -4.55515589316453    1.60531324301863
H         4.15599522995106   -3.30128952822211    2.42009107834004
H         3.81905975390075   -5.00636301707387    2.73705754273219
H         3.50435212699102   -3.66666230681428    0.01256562632062
H         3.01178717166861   -5.30828208386429    0.41806041038994
H         1.82166779893338   -2.76382740194844    1.61185721930248
H         1.01942286941473   -5.69902165629489    1.85312480051546
H         1.65290258677831   -4.65882694029998    3.12258879065004
H        -0.48656392958842   -3.16601415869238    2.69573078004916
H        -0.65270478854854   -4.69576287928532    3.57670895584842
H        -1.11556736825428   -4.62523752874545    1.88189215269088
H         1.47093525230289   -3.04815885073314   -0.81957838271821
H         0.64830823226912   -4.59177178888275   -0.53030175573512
H        -1.31963654413963   -3.72679355385057   -1.47897281070070
H        -3.68542553200115   -2.88705642269812   -2.07855805936361
H        -5.70435510183710   -1.64215432789404   -1.35847275808520
H        -7.56817992216867   -0.37773719587990   -0.49200409777706
H        -8.87509879917398    1.16695768688814    1.27525133039821
H        -7.09567360666583    1.58704559428815    3.29375707930530
H        -3.56190350391369   -0.50592391531810    2.17719542972419
Cl       -0.24460576521861    0.11575982134901   -0.11568374109657
