66
 energy: -105.943721165674 gnorm: 0.000732762128 xtb: 6.4.1 (afa7bdf)
Ir       -0.05998925293634   -0.88341876068047    1.82829819369688
C        -1.94759614361832    0.71930761260129    4.28216590655325
C        -0.64322148402614    0.19924287938360    3.80105093897089
C        -0.17035552896415   -1.13125045893442    4.06435746747906
C        -0.89171831037665   -2.14134871702912    4.88953760240303
C         1.20462653200675   -1.20150033778393    3.65218681285702
C         2.19879697920053   -2.22996664924040    4.06411432347513
C         1.54838332880198    0.05227982464273    3.04206649803746
C         2.92898990061525    0.45387818939163    2.66743624750255
C         0.39412416942881    0.92067473715121    3.13221222665104
C         0.44331828838343    2.36911789092986    2.88025053908191
C         0.12893061697249    3.25463030249888    3.90871378814910
C         0.23394998077556    4.61357710612295    3.67906943929598
F        -0.06825702793843    5.46258812702823    4.68269677818243
C         0.64080265579532    5.13701909725921    2.46530189303998
C         0.94543993201378    4.23061078163325    1.46481476891021
F         1.34263383757821    4.70241995151396    0.26494740195996
C         0.85983719369972    2.86433532523764    1.64644883722367
H        -2.12355305223639    1.73423168845944    3.94269805917329
H        -1.94364636053616    0.70406533268848    5.37281658622185
H        -2.77127882085091    0.08790969580984    3.95531024997521
H        -0.56747179606138   -3.15094691095024    4.65486467192193
H        -0.68297718576562   -1.95349836364955    5.94339595986344
H        -1.96540541604727   -2.07220067517875    4.74210407808627
H         2.73844091393932   -1.84315482515229    4.93029516613484
H         1.72263065781148   -3.15956894827491    4.36048956371136
H         2.93108716795691   -2.41743759700369    3.28367343925113
H         3.37903490824842   -0.26839782878459    1.99035061977593
H         2.93996383566091    1.43043333085300    2.19360848051369
H         3.54084491255555    0.49292304261286    3.56953058247348
H        -0.16862495617285    2.90432677148472    4.88305822830602
H         0.71582282766437    6.19968867356562    2.30592453084535
H         1.08296094704485    2.19910180540308    0.82687387484175
C         4.57240313384019   -7.15157330307384    1.17176516544503
C         5.03349476452105   -5.72268668332354    1.44111374524962
C         3.87922907943616   -4.72483112126094    1.56324553933634
C         3.12651499597156   -4.52214857478125    0.24952801449207
C         2.08548006647503   -3.40450743649347    0.30231165597411
C         0.90689932020034   -3.75033261421169    1.23014804535758
N        -0.13571954491988   -2.76696701280576    1.08061344121246
C        -1.14084451504558   -3.06986681493559    0.33300643673326
C        -2.11279990201884   -2.05927620126948    0.04602690890537
N        -1.91007736558228   -0.86453798098023    0.65078503771228
C        -2.70416535415166    0.14656172810730    0.30890960557252
Br       -2.36921282847290    1.84415117830097    1.04818823633143
C        -3.76667422517402    0.02429001239479   -0.57973170724093
C        -4.01537574104296   -1.20124600884172   -1.17598519269810
C        -3.16366782592193   -2.24331380868709   -0.86039423555593
F        -3.31996821594439   -3.44215320257170   -1.42505143958550
H         4.10639394653378   -7.23766553578858    0.19377096431837
H         5.42278186666930   -7.82975713116864    1.19615663897901
H         3.86026583461092   -7.47417035591096    1.92814139987976
H         5.60198765704815   -5.70846567834428    2.37390551862906
H         5.70707295590615   -5.40411212953087    0.64239525816011
H         4.29541568183197   -3.76674212938565    1.88174174207860
H         3.19666092952517   -5.07972088245733    2.33644547104006
H         2.63961926030954   -5.45245146800375   -0.04447781460966
H         3.84830276632064   -4.26818636599801   -0.52946995715687
H         1.69326947795012   -3.24003160013328   -0.70267817487006
H         2.54522785929431   -2.47152631633185    0.62952059511788
H         0.52608642964659   -4.74108104303601    0.96437847483660
H         1.24503585889427   -3.76157993596500    2.26400275391967
H        -1.24811076919984   -4.05034551109941   -0.12046479305946
H        -4.38364335218718    0.88170329189856   -0.79628793365864
H        -4.82745939467452   -1.34279050124187   -1.87153530303273
Cl        0.82330189873049   -0.17152695669919   -0.26397985238786
