75
 energy: -121.604230386061 gnorm: 0.000418371199 xtb: 6.4.1 (afa7bdf)
Ir       -0.01421654100529   -0.90845524988676    1.66123564365071
C        -1.46799939197253    0.46328095461815    4.38083036264561
C        -0.22444220764739    0.02755375211002    3.68560569983285
C         0.41458274559761   -1.23584174055495    3.87360775716558
C         1.64292782680666   -1.22964289761041    3.11950662236936
C         2.71010006773903   -2.27155307585267    3.16911290087983
C         1.80694077128780    0.07787299629604    2.54991512025820
C         0.62702193587675    0.84085240969502    2.84612274841516
C         0.45221431188952    2.27128292028638    2.55898571954713
C         0.19081348987241    3.17084368150918    3.59185956902278
C         0.06842263419628    4.52055016004589    3.32809431053114
C         0.20061992356618    5.01305971915193    2.03030292655399
C         0.09019011959583    6.45400744041808    1.75993022706381
C         0.95864258920952    7.07372217720832    0.86323984267717
C         0.86689078510526    8.43184594402721    0.62008374018271
C        -0.09750447430022    9.19154510298549    1.26257513684654
C        -0.96947176263520    8.58443982464523    2.15187646383360
C        -0.87463505798081    7.22786946419544    2.40219589553652
C         0.45517617383440    4.10812264285512    0.99980732097324
C         0.58283071771202    2.75749804744823    1.25779056122066
C         3.03942484494698    0.58350563638784    1.89220417018336
C        -0.01715490180817   -2.25398769998181    4.87148040562027
H        -1.23735693151250    0.67862698124862    5.42487457784993
H        -2.21885680457563   -0.32302358096861    4.36680323275856
H        -1.87841674167956    1.36046671944644    3.92704396032040
H         3.33329779961274   -2.10911804461085    4.04911978960328
H         3.34015366715676   -2.21287246124821    2.28612490661112
H         2.28566201335439   -3.27046925980085    3.22619702575407
H         0.12011577087573    2.81577999534390    4.60768763784796
H        -0.10287340485195    5.20822280909021    4.14207276162384
H         1.72610702147986    6.49331079659211    0.37209259186073
H         1.55195561309905    8.90109592639643   -0.07113415320214
H        -0.16777415845446   10.25236143085555    1.07185440561341
H        -1.72508087858628    9.17222400510579    2.65247625154144
H        -1.56730802092547    6.76153108938196    3.08714745188675
H         0.54584586717334    4.46746554570567   -0.01446334893086
H         0.77005390354204    2.06545640261294    0.44951423035396
H         3.17866215100576    0.12055285427790    0.91580798109025
H         2.98395855694001    1.66007448056019    1.75333163675717
H         3.90537387342666    0.33943566282537    2.50555437345758
H        -1.06225593035796   -2.52653382586575    4.74300632826637
H         0.60365869262906   -3.14235445996494    4.82199020765366
H         0.08545874185863   -1.82187759774905    5.86778099131402
C        -3.33670674024769    3.49669044367464    0.40263745380497
O        -3.85607023524048    2.41121681796274   -0.35087955254842
C        -3.33122537597308    1.20113043271584   -0.22234586948752
C        -2.28403115693520    0.85408621081060    0.63471084795833
N        -1.79035684029044   -0.37706802889576    0.70902409012790
C        -2.31172396063823   -1.35463312225378   -0.06605065836569
C        -1.65111706353601   -2.61801732863933    0.05369307518827
N        -0.66791173120468   -2.70091872487845    0.89092797400663
C         0.08924290889650   -3.88451913797497    0.94433377309636
C         0.21104358774721   -4.58765626944021    2.14180461428721
C         0.96618240786923   -5.74634976699602    2.18958263797751
C         1.61821439984408   -6.20748337882296    1.05806856089005
C         1.49135642584164   -5.51092826754769   -0.14149783405256
C         2.15398460407911   -5.98117240666631   -1.38736443002811
O         1.92930103601309   -5.52061822050066   -2.48406260462987
O         3.02210149430774   -6.96510763946340   -1.17977286170472
C         0.71726212810790   -4.35777759889417   -0.20253083265236
C        -3.37850704671786   -1.10544248164858   -0.93648434911441
C        -3.88495066905057    0.16943504938070   -1.01531568256224
Br       -5.32256977027650    0.59963759069324   -2.17768720247681
H        -3.49322490465513    3.33792981428823    1.47109578600504
H        -2.27467476072244    3.64957218439839    0.19913207338906
H        -3.90228013220409    4.36591360050695    0.07509081204638
H        -1.82343795638186    1.59941044166302    1.26551564493540
H        -1.95595099777255   -3.46330291930732   -0.55285885929087
H        -0.31814790177515   -4.23769197542520    3.01239272929658
H         1.04698424615683   -6.29586489855332    3.11449281635896
H         2.21625435070819   -7.10344296823552    1.09209704528287
H         3.44284514514686   -7.26048571384484   -2.00695239752981
H         0.64046025800653   -3.82023929974110   -1.13528962667345
H        -3.78165469211937   -1.89966645026864   -1.54363809434492
Cl        0.92236554200015   -0.65466466722947   -0.51297406423746
