62
 energy: -109.089788087671 gnorm: 0.000175074076 xtb: 6.4.1 (afa7bdf)
Ir       -0.57486610261381   -0.73607508093143    1.30684968599866
C        -1.89655559158332    1.18184159216883    3.89888236987969
C        -0.72901865196548    0.54258287423834    3.23872173016788
C        -0.27841185577844   -0.79415234611982    3.52214309027356
C        -0.87892534398902   -1.69409063309571    4.54766955412517
C         0.99882766994882   -0.97385341178015    2.89016940295380
C         1.96971833448295   -2.06318001616571    3.18195811251172
C         1.26830565370682    0.18884487977718    2.10276563322150
C         2.56640070011502    0.48461023154573    1.43718092629957
C         0.19108254675353    1.13953940425804    2.33181926860365
C         0.23550179251212    2.55481334361284    1.93459939575308
C         0.16721816316183    3.54190441331020    2.91618321217452
C         0.25860908534011    4.86895312507701    2.54177707463240
F         0.19665023438692    5.81660587073318    3.50064192906310
C         0.41532165401440    5.26468494922541    1.22587691560840
C         0.47772742406476    4.26035448405856    0.27582033044570
F         0.62884427823594    4.60765003323853   -1.01945222003206
C         0.39447930662529    2.92058107066362    0.60016229203747
H        -2.11140246975095    2.15463165114895    3.46943327567538
H        -1.67130638639815    1.30437533817624    4.95901683855194
H        -2.78384640907467    0.55678305450278    3.82740172800120
H        -0.60616978699427   -2.72966083474157    4.36721068733875
H        -0.50596327473617   -1.41231969841784    5.53291460346156
H        -1.96153742667682   -1.60639219300986    4.56077167433998
H         2.55975264973983   -1.76680082065796    4.05026898694310
H         1.46955836178792   -2.99800382272291    3.41758628962474
H         2.64991472909348   -2.22177693516858    2.35072113425241
H         2.89958199283149   -0.35766185865733    0.83586124454476
H         2.49037376175032    1.36210811674903    0.80279100125148
H         3.32131870418699    0.67123858999219    2.20153378195914
H         0.07036638233238    3.29160556479559    3.95966333282943
H         0.48516574295729    6.30436408762369    0.95308099277032
H         0.42064708055593    2.17728924029871   -0.18127283407537
C        -6.93048431224354    0.73079674408444   -0.55360630692624
O        -5.57935091188003    0.87280106356139   -0.13415127924372
C        -4.82105663246595   -0.20220604531610    0.02128124547099
C        -5.19645597865725   -1.53139678909414   -0.20029015668919
C        -4.25780765071561   -2.52732666943032   -0.02549803963364
C        -2.97088587687354   -2.20369990254851    0.40215785083993
C        -1.89326126528951   -3.13800399626112    0.47498696415493
N        -0.71686850064484   -2.68042971782076    0.76358413002142
C         0.39123759031362   -3.54216502849109    0.73851710938508
C         0.35804733904471   -4.77582310625153    1.39020890868147
C         1.45537832654540   -5.61456438369760    1.33877162226225
C         2.56951532324537   -5.21577283084531    0.61829769502114
F         3.63632253716633   -6.03562710506317    0.56059989461173
C         2.62195082996502   -3.99683221612944   -0.03965264384692
C         1.53048556796795   -3.15346680474541    0.03258720061817
N        -2.61715129606934   -0.91913878479017    0.68421035544432
C        -3.49830870547290    0.03668769335394    0.46060292301324
Br       -3.00225011431905    1.83864836376962    0.69121065932935
H        -6.98524298156348    0.28680084001819   -1.54963592837510
H        -7.32736704263853    1.74298609385594   -0.58189128569632
H        -7.49972586638103    0.13213403084402    0.16002137704082
H        -6.19333128849494   -1.77491671285390   -0.52963403249059
H        -4.50775516083690   -3.55592600079636   -0.22864951200672
H        -2.04800301663004   -4.17754880175562    0.20926898592901
H        -0.51457779763850   -5.06535021380887    1.95469155990132
H         1.45653467652673   -6.56742556676981    1.84282519393354
H         3.50415833225557   -3.72543099751599   -0.59661199322693
H         1.52923514348423   -2.20578723208170   -0.48359087836983
Cl       -0.22468521673865   -0.19911518713706   -0.99133006033233
