82
 energy: -140.162960903606 gnorm: 0.000291220766 xtb: 6.4.1 (afa7bdf)
Ir       -1.04791998412437   -0.97946555154696    1.03296423268527
C        -2.13439515385155    1.22219709989482    3.48350155809221
C        -1.06302405984708    0.37595389199961    2.89565984994193
C        -0.86456672459277   -1.00589936260927    3.25278306374093
C        -1.66210235170043   -1.74426890672304    4.27361452972946
C         0.40164516700650   -1.42294673952571    2.71692046705712
C         1.13283931011561   -2.66152547033235    3.09862847169341
C         0.90939815698785   -0.36480242685795    1.91064197146791
C         2.26570290343534   -0.32114260889080    1.29410389195157
C         0.00294001452044    0.77165442781533    2.03831598530062
C         0.35087504983565    2.12936750184176    1.60610284323601
C         0.21044644883193    3.20480676123812    2.48302936943743
C         0.61282233506036    4.46227757289012    2.07692644711219
F         0.45159800354588    5.49343377453423    2.93429560782401
C         1.17304475315853    4.70872660158975    0.83781315339108
C         1.30249430415785    3.62241180377865   -0.00899768992514
F         1.83531758122391    3.81713222795780   -1.23308709951918
C         0.90316036591795    2.34814928185236    0.34437333688421
H        -2.22796847776617    2.16823272170282    2.96166862718041
H        -1.88686638317107    1.41493669975666    4.52854609737863
H        -3.09229181827315    0.70812306341129    3.46708265560824
H        -1.56397569756070   -2.81826624766597    4.14624624498393
H        -1.29515902469842   -1.48577697617555    5.26743551747040
H        -2.71266002033702   -1.47365986282391    4.22236164343215
H         1.71106742706367   -2.45021942945068    3.99946730009255
H         0.45138259441850   -3.47775192200838    3.31961420119202
H         1.81947543430339   -2.97504882532153    2.31805871555265
H         2.22865019433628   -0.55147825967902    0.23035822537832
H         2.68874792218774    0.67593742003726    1.39685652451306
H         2.92532553450022   -1.03982034565386    1.77219806148107
H        -0.17235667443969    3.07591864111843    3.48102947266161
H         1.47419795525385    5.69803931692047    0.53887341174155
H         0.98885022806034    1.54709360930125   -0.37150178425596
C        -2.79738462708151    7.65942085668329    1.86412385579278
O        -3.13876156340740    6.28751482281852    1.68499829282989
C        -2.42537950309417    5.60112914638387    0.79274118725284
O        -1.52684419043247    6.08375966084012    0.13845008137577
C        -2.84101463066075    4.17750477985829    0.70069099946226
C        -3.91183531439446    3.67062567150904    1.43517921705082
C        -4.25720135584262    2.33916710486516    1.31462189514903
C        -3.51600774251826    1.48461856943057    0.49412554090703
C        -3.95395961190888    0.09322921584305    0.29695190456814
C        -5.29640733486009   -0.10552379785751   -0.04509703317745
C        -5.76625568272304   -1.37027514182853   -0.34872832153973
C        -4.86841686122875   -2.42298915371780   -0.32232239061333
C        -3.55212881319766   -2.17244484165170    0.05618385798043
C        -2.56250853713487   -3.20698511469281    0.09518797194411
N        -1.36872419855292   -2.89106930611800    0.47814009058039
C        -0.37938175152614   -3.88640924091063    0.50953516833671
C        -0.64351150107559   -5.12571393033244    1.11043318034291
C         0.31652952946656   -6.10915063786112    1.11100106288466
C         1.56514192131549   -5.90536257341030    0.50756004739679
C         2.60598787045428   -6.90784716112547    0.44153270277939
C         2.38182462352884   -8.26065261172623    1.02375107261147
C         3.76863263353705   -6.57602874251733   -0.16749761984968
C         4.01670755045970   -5.27250938558083   -0.74491848184593
O         5.04456446893196   -4.92702693929237   -1.28486267901592
O         3.00168840831960   -4.35709206072397   -0.66680030710178
C         1.82277953115581   -4.65223909232010   -0.07634628677888
C         0.85923031645665   -3.64657369035386   -0.06532775846460
N        -3.10029312366431   -0.93393016134494    0.39069965811785
C        -2.45048326412906    1.99545123127405   -0.24311595597654
C        -2.13109709673211    3.33611952977750   -0.15117591359212
H        -3.53603056808090    8.06464925519748    2.54955688725058
H        -2.82420321239269    8.18414899559287    0.90743165670152
H        -1.79299407740420    7.74239892277431    2.28420375216971
H        -4.46781899152171    4.32480209456469    2.08683772700741
H        -5.09045490236389    1.95315278517181    1.88143356072448
H        -5.94834822659584    0.75184850248892   -0.09160039350450
H        -6.79965193963682   -1.52662009891419   -0.61491003461233
H        -5.16660669596013   -3.42549404739763   -0.58183558819254
H        -2.80547663097807   -4.21014428511913   -0.23726415635702
H        -1.59463903638545   -5.29518706480268    1.59007186551659
H         0.10460360656092   -7.05575406447163    1.57960181556765
H         3.25499401912992   -8.88793978882980    0.87184542327327
H         2.18634078766633   -8.18584277783122    2.09187009406803
H         1.52370517414486   -8.73609243320298    0.55201844632803
H         4.58422977722105   -7.27595387687962   -0.25638540826829
H         1.07232467571240   -2.70516139712004   -0.54462839326846
H        -1.90389888385954    1.35698353402037   -0.91740297148707
H        -1.33362932937662    3.75669403946935   -0.74266173359940
Cl       -0.40761000875473   -0.62984878264431   -1.24543849334007
