67
 energy: -107.379901653012 gnorm: 0.000325957936 xtb: 6.4.1 (afa7bdf)
Ir       -0.44750113471054   -0.62377372399676    1.92275641768199
C        -2.14819031352799    1.53445767617240    4.03189635217507
C        -0.90110126828199    0.84718545985959    3.59392900716599
C        -0.39396277090573   -0.38057080168203    4.16336984662965
C        -1.05958747890390   -1.15233327158106    5.25033997145379
C         0.96220032825194   -0.54531009631893    3.72551121964173
C         1.94294976046759   -1.51701631469619    4.28009448367897
C         1.25636864617055    0.49646284514409    2.79466603065875
C         2.59236340416932    0.77485982298145    2.19280347626536
C         0.10482218886486    1.38531604058850    2.74823841283263
C         0.06964478917784    2.70301879359900    2.09793396808739
C         1.07014808735987    3.62872345365359    2.38662565545018
C         1.02419344800147    4.87651720996789    1.79480705752144
F         1.99719876322732    5.76489690477272    2.08399392018931
C         0.02086962233713    5.25051224859524    0.91898192365005
C        -0.95672981658339    4.30857758165930    0.65124650663468
F        -1.95376103531388    4.63330507120525   -0.19737472246954
C        -0.95609924202516    3.05039531940458    1.22215741525297
H        -2.45203068654263    2.29783395866194    3.32103325005279
H        -1.95020061385988    2.02604634446417    4.98571487400435
H        -2.96064390341392    0.82989152322896    4.19207375149288
H        -0.72077515707229   -2.18389428709465    5.26658134905332
H        -0.81276556311864   -0.69912232316477    6.21119773824400
H        -2.13987767793625   -1.13881298630185    5.13898157214617
H         2.45531347366015   -1.04147415810416    5.11783062724345
H         1.45329871754346   -2.41096660039367    4.65338041841141
H         2.69672427749205   -1.79312655345072    3.54893127925556
H         3.08335796315812   -0.14421804775121    1.88246020734709
H         2.49479055686903    1.42549326506936    1.32794932559829
H         3.23447711202228    1.26042076665874    2.92802838561686
H         1.86693839706490    3.39783166750024    3.07369200469773
H         0.00429843412743    6.22657062680046    0.46370860291159
H        -1.71966887265927    2.34204771618983    0.94386121711767
C         2.14619718759728   -6.76957835080542    3.24516815382094
C         3.02546307003384   -6.11640051112672    2.50855529225595
C         2.80359930546161   -4.84388624791715    1.74570171988502
C         1.39463805825962   -4.26834371917721    1.85926741404525
C         1.26414042593366   -2.99784396264864    1.00524551417489
N        -0.05789059343924   -2.42162605926687    1.11217364135624
C        -1.03389884135060   -3.01019625201693    0.50770235735175
C        -2.32682993841371   -2.39664436594013    0.59876136982397
C        -3.47816782122859   -2.88193898396864   -0.01613525673139
C        -4.66249696166010   -2.17114024513911    0.11297799180097
C        -5.89789928520692   -2.70127366205603   -0.54727948868093
O        -5.90766147144753   -3.70746452413086   -1.21562329076812
O        -6.95749674319031   -1.94314740560664   -0.30353532136509
C        -8.19637844425049   -2.35394188417283   -0.88233345645380
C        -4.65254334170121   -0.98290549413376    0.84681477343987
C        -3.46833151729056   -0.56378386937874    1.42411665721454
N        -2.33156837076217   -1.24929750946637    1.32285527144789
H         1.13159760591935   -6.43879348282702    3.38169043844089
H         2.41263519291584   -7.68238848884204    3.75030204989867
H         4.03133441914321   -6.50610730284200    2.41145185829490
H         3.53543041152855   -4.11025786181329    2.09574079271142
H         3.03541992141066   -5.03987351057495    0.69452524002091
H         1.17466111710731   -4.03275597734225    2.89955349070363
H         0.67271627533387   -5.00880851667915    1.51489106193639
H         1.99179901177379   -2.25344938763151    1.32846048373922
H         1.46708802747918   -3.24232106487935   -0.04176073696097
H        -0.88995141962864   -3.91034656977365   -0.07909323801853
H        -3.45948880857982   -3.79369293034686   -0.59259334019584
H        -8.95132853621060   -1.68624886008329   -0.47763188457762
H        -8.14868066013142   -2.26846049253746   -1.96910699238674
H        -8.41044065560654   -3.39082611708540   -0.61843061667644
H        -5.55329345907746   -0.40333788642104    0.96247226730778
H        -3.43608173867400    0.35412544221244    1.99144785076272
Cl       -0.21226985724121    0.15484992281651   -0.31379561327172
