65
 energy: -91.623781382533 gnorm: 0.000192348621 xtb: 6.4.1 (afa7bdf)
Ir       -0.24154665374365   -0.72851304610940    1.05873632917226
C        -2.13550464685005    1.05230484274188    3.38493866749256
C        -0.87725803664011    0.35489924833480    2.99682788494750
C        -0.63783000626555   -1.04991591111226    3.23571878274104
C        -1.59026978115814   -1.96720101827320    3.92493617088776
C         0.76064454960228   -1.30312169764516    3.02060180391976
C         1.49184070306043   -2.51456067127800    3.48591268500336
C         1.34029287824846   -0.11384800035733    2.49086925822014
C         2.78658913379177    0.14214142284220    2.23718521143946
C         0.32101589151924    0.92526751024728    2.50504055632689
C         0.61664839926838    2.36544679488263    2.25231763805991
H        -2.23058478806757    1.01333105778730    4.47047079930913
H        -3.01011337603788    0.56701459243681    2.95750730222039
H        -2.13131735600922    2.09298196015620    3.07797468307429
H        -2.61706607988107   -1.74176572976643    3.65078526035532
H        -1.38105154087619   -3.00628537363366    3.68650179372497
H        -1.49240950242186   -1.84113092126117    5.00407988457946
H         0.89043013029084   -3.41457809971329    3.38713757871714
H         2.43655196969561   -2.64054238933294    2.96413779225134
H         1.71680254151034   -2.38441490884102    4.54583854737119
H         2.91271485920151    0.79011603702053    1.37316271306726
H         3.32959432685899   -0.78201262597227    2.06264645274190
H         3.22216400030730    0.64215293137490    3.10298100269076
H        -0.27407524048439    2.98045095425119    2.34210718559132
H         1.04104544648140    2.50238486868000    1.25857731167773
H         1.35225752745157    2.71319543924206    2.97739767433781
C         2.10360350126380   -1.97669878563753   -3.21424488597273
C         1.67792159784602   -3.11613381127673   -2.29330981772591
C         2.09165633482305   -2.90376692326148   -0.82939726570157
C         3.38454777168624   -3.64334029788461   -0.45872778975395
C         4.60808733843096   -3.17309692407431   -1.23659572664733
C         0.97798169513871   -3.40090715507695    0.12715057674172
N        -0.15736671297689   -2.52060949100706    0.11965381746014
C        -1.20929981533609   -2.86641418145952   -0.54622809406662
C        -2.26809121391405   -1.91033958704551   -0.66493405051537
C        -3.44719641787343   -2.15588142589876   -1.39690591796622
C        -4.38468366471810   -1.16923410698433   -1.49932028186782
C        -4.11506399913452    0.09982672228043   -0.93804638076190
C        -5.00853340643793    1.17823422175907   -1.07122375812996
C        -4.67981109087827    2.41184816607852   -0.57030658105772
Cl       -5.77572457500382    3.74224084592853   -0.73672966595370
C        -3.44013977428761    2.62221389297649    0.05867762733013
C        -2.56967493904584    1.58077934206007    0.22356527778362
C        -2.88642361701733    0.28867067019896   -0.23966421171891
N        -2.02568447659234   -0.74176137139767   -0.05346128139118
H         1.76501836820374   -2.17021087634615   -4.23017135129862
H         1.66276596419381   -1.04102840422100   -2.87935454042822
H         3.18209473034945   -1.85634495734400   -3.23270534700093
H         0.58955132201884   -3.18657077688342   -2.35729722697047
H         2.08892847405174   -4.06018581738359   -2.65669370531681
H         2.23047181426545   -1.83303433048226   -0.65411828443770
H         3.24633212920334   -4.71468232441275   -0.62163935200497
H         3.58119614063849   -3.49556751488057    0.60530121124470
H         5.50311951357561   -3.64458300545395   -0.83617107719679
H         4.53404398789061   -3.43753811357326   -2.28733379006766
H         4.72349941614740   -2.09494602466594   -1.15486460913665
H         1.38454479916833   -3.43630159995064    1.13630203508728
H         0.67881735879997   -4.41049438104870   -0.17125403731222
H        -1.29282422327792   -3.83579982425305   -1.02556901561312
H        -3.58883516524937   -3.12174610024281   -1.85337376760145
H        -5.31455607694356   -1.33001127427718   -2.02179701909022
H        -5.94250225005522    1.02504704119474   -1.58775905824362
H        -3.18536380065876    3.61291891106686    0.39880840083961
H        -1.59963364704845    1.74268773946239    0.66321547448504
Cl        0.67694825990865    0.43830256672225   -0.79972549995642
