58
 energy: -109.634438436957 gnorm: 0.000641541528 xtb: 6.4.1 (afa7bdf)
Ir       -0.61421580551107   -1.35019567940112    1.45497865387031
C        -1.83147794189149    0.88186280804600    3.76420397067533
C        -0.68299890630527    0.17964412988196    3.13060545226761
C        -0.09193336100405   -1.03252809593077    3.63059641674163
C        -0.50333267409873   -1.72254933117008    4.88353050006211
C         1.13293330474519   -1.26561754971315    2.89757171814261
C         2.19104142122815   -2.25130986205748    3.25509252358820
C         1.26638444476445   -0.23218044802954    1.92699976038057
C         2.45502645271813    0.03355363512722    1.07828217224386
C         0.11588660703314    0.64604308307622    2.04095598704832
C        -0.01797358980499    1.94011507186772    1.31629883355304
H        -1.48058594927629    1.35088336149193    4.68436762175517
H        -2.62815111112159    0.19164658325564    4.03057353510722
H        -2.23022788192392    1.66488439547646    3.12582961565083
H        -1.58207885158267   -1.70752446151418    5.00939520624935
H        -0.14689357307872   -2.74746449597042    4.91513648688794
H        -0.06348360195327   -1.19016185924404    5.72848191366327
H         1.80395965043117   -3.04081241879265    3.88993770182973
H         2.63770209528413   -2.69480657505375    2.36821740736780
H         2.97783787211807   -1.72932770976946    3.80048487020524
H         2.15910111151428    0.32788253072075    0.07385544362138
H         3.09898748360078   -0.83826127843861    1.01358681854796
H         3.02154217361470    0.85731866152762    1.51442132914430
H        -1.01902522119259    2.35149724209097    1.40392506231388
H         0.21710932110632    1.81237343825668    0.26212226554145
H         0.68779308051180    2.65965307661914    1.73160205909160
O        -0.09295816643089   -4.66485797046299    3.29918645417860
C         0.57634407719124   -4.86329913850473    2.15958982572316
C         1.67301299709668   -5.72522175559823    2.16903016915021
C         2.37343973230831   -5.99178421462382    1.01192222609474
C         1.97652984114567   -5.40336940161911   -0.18686241183298
C         2.73551846607827   -5.66539615698030   -1.45449312541992
F         3.64104006181689   -4.69703803682113   -1.71793364737343
F         1.93481521494041   -5.72063796220370   -2.53475010859072
F         3.42281893438723   -6.81732350539376   -1.43073360893880
C         0.89220525846022   -4.54167453421103   -0.22247167041937
C         0.20047323599199   -4.25312929325609    0.94866096160402
N        -0.86324121880021   -3.33208995316222    0.92925603018246
C        -1.89972775047293   -3.56890944952566    0.17952727072350
C        -2.89651320220417   -2.54849750525794    0.11458496051737
C        -4.08744061842691   -2.65378656416981   -0.61193050047760
C        -4.96057634631574   -1.58817982582426   -0.63404708168769
C        -4.61052505124584   -0.43597118574582    0.07914892875247
C        -5.52428526694700    0.76188257886542    0.05931722231331
F        -6.80663944847999    0.42250798931995    0.25220052831819
F        -5.47293131426083    1.40874093493408   -1.11802584379765
F        -5.21393726130586    1.66124146596889    1.00275953733988
C        -3.41717773744924   -0.39261006064101    0.77841140805632
N        -2.57661301034489   -1.42241338531332    0.80947429701431
H        -0.90802757872154   -4.15864836178428    3.16076169296349
H         1.95439344641438   -6.18426394759106    3.10248661957440
H         3.21852938784924   -6.66122990559606    1.02914130246134
H         0.59990473723329   -4.05922545180107   -1.14247483558401
H        -1.99961627515225   -4.49232351392693   -0.37826867780622
H        -4.30383193090592   -3.56015414477819   -1.15380578557524
H        -5.88855348676003   -1.63142827700692   -1.18271055101900
H        -3.13661272139500    0.49074449546301    1.33267972794852
Cl       -0.17853655523368   -1.06402921508888   -0.87215163994567
