59
 energy: -85.761072738911 gnorm: 0.000650078880 xtb: 6.4.1 (afa7bdf)
Ir       -0.41698534754530   -1.07838197601463    1.43089131144269
C        -2.30835766096477    0.66733283480439    3.85680402396906
C        -1.05607970506669    0.01945594953401    3.38897546846801
C        -0.75015705061579   -1.37385934860332    3.62950468721391
C        -1.63822030508323   -2.31876928316077    4.36462571968795
C         0.64404063656133   -1.57395938056590    3.35961186314563
C         1.45516901872893   -2.72686701323927    3.83660291853681
C         1.15466190798140   -0.35767262178589    2.79372944418706
C         2.58135038841593   -0.04397947003206    2.50977387418270
C         0.09334661772161    0.63546602092632    2.83595093033578
C         0.31121644655408    2.08317024734955    2.56307506650529
H        -2.34199937482601    0.59151761831011    4.94414423706990
H        -3.19204101103761    0.16702318413506    3.46735535546738
H        -2.34767730718103    1.71509272139229    3.57988230065413
H        -2.68382522095550   -2.12694857746889    4.14208864743549
H        -1.40850160853027   -3.35191350590800    4.11962427753728
H        -1.49100343240780   -2.18440166330859    5.43701828201895
H         0.87719810261349   -3.64639756568890    3.86683995726536
H         2.34930704827880   -2.86734226736489    3.23652657339983
H         1.77473709651981   -2.50614686306216    4.85670582176463
H         2.66760661767649    0.59954732975639    1.63820855026789
H         3.16476452577421   -0.94408612396828    2.34318629342375
H         3.00232643110865    0.48822139498556    3.36310740350828
H        -0.62230129184432    2.63655673977416    2.56813231931213
H         0.78962367029052    2.22197679678646    1.59601594027538
H         0.97146059080808    2.49536308924799    3.32605417003703
C         1.32671135638834   -4.24441986345656   -2.35284918194779
C         1.94055907508702   -3.06746679228266   -1.59650355421163
C         2.05767091960771   -3.18423392351969   -0.06568888793552
C         3.33729573870319   -3.89403782517879    0.40730413759792
C         3.49076267066335   -5.36277401036433    0.02628980385036
C         0.80618972048753   -3.80347816349774    0.59066879807463
N        -0.31498442354205   -2.90217688803693    0.51997649399381
C        -1.34185609518157   -3.26043407804309   -0.17320744680952
C        -2.38728016504263   -2.30970727785807   -0.39387921487612
N        -2.23424475621720   -1.11970693379868    0.23346899374969
C        -3.06714615192186   -0.13407356768041   -0.09103358424687
Br       -2.75630546989338    1.56638807626217    0.63309342385457
C        -4.14041287897648   -0.28776310608768   -0.95936137528592
C        -4.35196727235515   -1.51877896260291   -1.56196787926100
C        -3.44728143558544   -2.52458805577870   -1.28315077763882
F        -3.55650188345738   -3.71927269271329   -1.87330754037941
H         1.75504102612671   -5.19500366908514   -2.05372278272423
H         0.24924558955259   -4.28689854805410   -2.21812630042905
H         1.51211894264326   -4.11500430940060   -3.41725222248981
H         2.94421398172964   -2.88550314064099   -1.98502842395666
H         1.34857556047486   -2.17827581233977   -1.82194937369880
H         2.12740254184109   -2.15474098979128    0.30660676805158
H         3.39102588217886   -3.81888054303707    1.49584368773195
H         4.18938940893581   -3.34216107959559    0.00523688945486
H         2.63772219353374   -5.95251680934015    0.35028971329900
H         4.37893031516554   -5.76646042604353    0.50820684477900
H         3.61948267867571   -5.47996203945110   -1.04532078962374
H         0.55808735262162   -4.75105524451119    0.10796086285114
H         1.03248731661276   -3.99050497184947    1.64089048322504
H        -1.41256663461962   -4.23585941463992   -0.64359277640690
H        -4.79357790718463    0.54668014480450   -1.15888651829677
H        -5.17179860639537   -1.68740881457613   -2.24187848555550
Cl        0.40405562637089    0.02815846532846   -0.51746422187411
