88
 energy: -140.301323070104 gnorm: 0.000790583381 xtb: 6.4.1 (afa7bdf)
Ir       -0.59367457436801   -0.11444230429533    1.52466729032833
C        -1.65766856613605    1.39836693266214    4.37553316063903
C        -0.54141855181123    0.79019164965319    3.59967621447065
C        -0.18176506146190   -0.59332795639556    3.65650990227419
C         1.04334897895121   -0.76359936799909    2.91557562455382
C         1.91107476873098   -1.97419245498774    2.93048951836608
C         1.40539668786596    0.49712925697907    2.36004757914051
C         0.41283324171842    1.47363661751154    2.76933188411501
C         0.62183592848093    2.92083227012415    2.66802397578820
C         0.50485432092287    3.72395653997072    3.80280461115705
C         0.82428915667692    5.06431674431570    3.74903922554226
C         1.27937960195143    5.64884885326775    2.56785740354402
C         1.66031631772147    7.06675880326308    2.53325019739613
C         2.74864261660107    7.49327278282784    1.77395418017842
C         3.11692203244488    8.82557386611079    1.75370521825585
C         2.40349748532357    9.75789259339472    2.48947704681807
C         1.31969787510199    9.34652894625649    3.24761649428779
C         0.95265538224935    8.01317043005657    3.27196762735268
C         1.38260558613935    4.84641393892515    1.43294892379235
C         1.05621523713400    3.50621355770089    1.47910587462458
C         2.68778442473552    0.79228935889532    1.66272813849940
C        -0.81521778282849   -1.61527272474612    4.53831424294591
H        -1.85297676149209    2.41270643138697    4.04250520145857
H        -1.38553290585795    1.41626962105012    5.43166839389844
H        -2.56707139005973    0.80810964242633    4.28372429502422
H         2.64950663538366   -1.86427540258468    3.72591148685544
H         2.43869888139881   -2.08932737001732    1.98759907834112
H         1.33588618286114   -2.87465097589088    3.12467742861022
H         0.21314118799152    3.29019607686810    4.74546418801237
H         0.75828998390513    5.65932323963858    4.64734596799978
H         3.32312771231322    6.77278919709641    1.21093790763772
H         3.96532523982709    9.13880346438282    1.16262742443956
H         2.68938470308105   10.79938050913424    2.47107250157799
H         0.75591461586842   10.06964491136212    3.81919531076508
H         0.09284595412397    7.70711024628612    3.85015964145480
H         1.70093701646106    5.28593534108064    0.50032582056081
H         1.12184781311012    2.90611001427192    0.58513250465087
H         2.58350246451192    0.67280260031951    0.58451386331610
H         2.98676766900766    1.82049505134280    1.85485263787617
H         3.46685395415015    0.11609865535711    2.00566507058723
H        -1.86417294326940   -1.39092684699350    4.70939034262890
H        -0.73575523385027   -2.61232399726213    4.11312947686592
H        -0.30654978503434   -1.61986450128485    5.50287354629400
C        -1.94059312014416    8.92275864479199    1.63982209971499
O        -2.16455971468049    7.52519932899528    1.79278150688311
C        -1.53244472487969    6.71334724058400    0.94112337425421
O        -0.76215443445066    7.10321596647402    0.09268986252123
C        -1.91953350390781    5.29039019022342    1.12074842738594
C        -1.48185379309988    4.36482952264439    0.17777108056641
C        -1.89007881902258    3.04718229319324    0.24405083175848
C        -2.76277958064128    2.63990236017557    1.25016252393103
C        -3.38440882744024    1.30739409046719    1.16378509714288
C        -4.78058685334959    1.26705780198185    1.08205968498876
C        -5.43416673468149    0.07686251911379    0.81877907431684
C        -4.66909427476492   -1.05922771090168    0.61777131073483
C        -3.28787024434206   -0.96980169363699    0.76182563669862
C        -2.42595103905276   -2.10388743916485    0.58771372544009
N        -1.16826444362805   -1.94825963783076    0.82534734367478
C        -0.29559700470820   -3.03693472153950    0.69535662594610
C         0.89072603600911   -2.91057646434610   -0.01189226607394
C         1.76364769493074   -3.99299218441796   -0.15444632927230
O         2.87813792009550   -3.75183122934015   -0.87046026359601
C         3.80533123549927   -4.80227067819083   -1.08113589558452
C         1.44425694259848   -5.21192982575524    0.44669617839959
C         0.27335836834694   -5.34117719481852    1.17524537432028
C        -0.58830305695016   -4.27187443606619    1.28783663718487
F        -1.71865192900461   -4.40108688821737    2.02531787957719
N        -2.65150387982185    0.19213712564600    1.06329215896140
C        -3.18838505122656    3.56485139519335    2.20566109914703
C        -2.75492505112660    4.87454943930859    2.15526290607460
H        -0.87327901778046    9.12671146872091    1.53588384274018
H        -2.34025913872402    9.39289941143589    2.53448107507548
H        -2.46108335227537    9.28843255203556    0.75233067633041
H        -0.84402899572385    4.70473024086365   -0.62298495929485
H        -1.56990236098346    2.34469919432111   -0.50763297747860
H        -5.33052453793817    2.18745519339406    1.19589925692695
H        -6.50961064244743    0.04137371162689    0.74774289841102
H        -5.11779942371163   -2.00649052408182    0.36794021537002
H        -2.83657169117026   -3.04448139961819    0.23675662146356
H         1.13132982838518   -1.97237952948912   -0.48541970534668
H         3.34748154893845   -5.63267448044605   -1.62447133919933
H         4.59912757570258   -4.36838888948464   -1.68525917766934
H         4.22034090945056   -5.15958732046652   -0.13537381989312
H         2.09688535088342   -6.06384021728987    0.35843789219702
H         0.02114932214022   -6.27331448215774    1.65483333941740
H        -3.86985374020400    3.25699609170287    2.98450048996590
H        -3.08345212914197    5.58692922107125    2.89447044693673
Cl        0.00242527740686    0.38669570251984   -0.72267488386314
