75
 energy: -110.902744085090 gnorm: 0.000503326537 xtb: 6.4.1 (afa7bdf)
Ir       -0.55924072201946   -0.93171671579045    1.65446283556216
C        -1.85653045418113    0.82538473395027    4.27845965151187
C        -0.67689369312900    0.17902516122790    3.63663499126176
C        -0.26362363151317   -1.18242456067659    3.84022661748839
C         1.02814918392492   -1.35128499234930    3.22165274854535
C         1.92793030681196   -2.51905896599358    3.43948892548426
C         1.34308741742798   -0.15170203116197    2.53021553136654
C         0.27734661755862    0.80916210035495    2.79007641565841
C         0.37101491104071    2.25342474844216    2.52125049921116
C         0.39413380399837    3.13952500938373    3.59767409151868
C         0.54069717489248    4.49561890976323    3.38542741559431
C         0.66608911244453    5.00814495957989    2.09519472086696
C         0.84188212255630    6.45100777231358    1.87101640295762
C         1.73946330643130    6.91199529514106    0.90963947204409
C         1.91499237969509    8.26762847813989    0.70156290211409
C         1.19275147480267    9.18615552939966    1.44590296181363
C         0.29514415424686    8.73949465139986    2.40205033581914
C         0.12272637787701    7.38407774530405    2.61548627894582
C         0.62985897140990    4.11840159053937    1.02264995202218
C         0.48571695790706    2.76112706356250    1.23043256927720
C         2.63997853983658    0.19194734089189    1.88167869262853
C        -0.89673832205442   -2.13764491292926    4.79478908058323
H        -1.65910131707171    0.94436119289118    5.34421384867088
H        -2.75082960876341    0.21390520862659    4.17738623960484
H        -2.03854125379115    1.80832930318752    3.85164381344579
H         2.43317372497290   -2.39503756055329    4.39803664409322
H         2.68214384483285   -2.58999021702307    2.66183736075854
H         1.37089974705432   -3.45207912176246    3.46937105122076
H         0.32541569698093    2.75993626587898    4.60593122370513
H         0.58410117188501    5.16545952586690    4.23134977445811
H         2.31882979580160    6.20326884690133    0.33591386099562
H         2.61918287810085    8.61013046066402   -0.04314416406862
H         1.32958742100467   10.24501855387969    1.28179733283382
H        -0.27288300648635    9.45217592054386    2.98266353992742
H        -0.59027092716370    7.04581517801229    3.35331108696417
H         0.70001377792916    4.49697694705526    0.01378156555305
H         0.43727939126688    2.08916979539273    0.38742114750972
H         3.19267409931447   -0.70140592678047    1.60536203668674
H         2.48019968178355    0.79838687450012    0.99374814374489
H         3.24327354881769    0.77361000731208    2.57965815838755
H        -1.97423437425626   -2.00240914941738    4.82831166514169
H        -0.67532400423164   -3.16633433713536    4.52416454207951
H        -0.50140722254923   -1.95914928623302    5.79555312123932
C        -7.33039746529168   -0.12817875582935   -0.25680733452051
O        -6.40420485089130   -1.20424718329528   -0.32053832453322
C        -5.17169751279893   -1.03935537646964    0.14506033784185
C        -4.65959932012292    0.13797986446525    0.71316647136913
C        -3.35854419531423    0.15877103817062    1.16968929291390
N        -2.54907572320272   -0.89394220074885    1.11271228935064
C        -3.01402219783497   -2.03313272319409    0.53746638717916
C        -2.02483454452764   -3.07047576285644    0.44636376543238
N        -0.83935093106060   -2.78524892964282    0.87800890485499
C         0.18863020853651   -3.73058129925775    0.80087123228126
C         1.43969923780913   -3.34023124197592    0.32162062947442
C         2.45770119244968   -4.26561126425458    0.22263259537713
C         2.27129207995663   -5.58762332324572    0.62181525620564
C         3.38173146887256   -6.58052117575001    0.50913990885910
C         1.02237080718973   -5.96231159825423    1.11116255237461
C        -0.01459300482330   -5.05453501182889    1.19277418957522
C        -4.30695145761518   -2.13913385313547    0.05498456111048
H        -8.25115675661260   -0.51522613552273   -0.68715734800719
H        -7.50806220912978    0.17441689426966    0.77722874943676
H        -6.98295766078096    0.72445003430680   -0.84383559819086
H        -5.25616917765868    1.03009649676854    0.79918700897074
H        -2.94871519961975    1.06120677877360    1.59842187084613
H        -2.25375417073439   -4.02379679175370   -0.01505951914052
H         1.57970691808652   -2.32072271372685   -0.00419916318699
H         3.41634148674121   -3.96047538304520   -0.16924820884297
H         3.38313414623827   -7.01687644465673   -0.49011433398253
H         4.34687856503339   -6.10455358939618    0.66382299086261
H         3.26119637937304   -7.38759753918491    1.22692852161859
H         0.86057159285510   -6.98064761806883    1.43097374600134
H        -0.97185373670314   -5.35537232320998    1.59093158677962
H        -4.65568390701245   -3.05193146845844   -0.39858070222582
Cl       -0.18456811682821   -0.22111879229728   -0.60393640127942
