76
 energy: -100.034791678787 gnorm: 0.000346693174 xtb: 6.4.1 (afa7bdf)
Ir       -0.52224208941656   -0.99358120036954    1.70240297081292
C        -2.45468016650767    0.69175568694748    3.99592416314554
C        -1.13232799929927    0.14497071120151    3.57481761459311
C        -0.70154129762990   -1.18573943112368    3.92024076871774
C        -1.48116334781515   -2.14376941759722    4.75736075060054
C         0.69707544230435   -1.29708192571642    3.60218329468948
C         1.60504604984193   -2.38396627871225    4.06940537446344
C         1.08934060281316   -0.09776476406023    2.94934522242136
C         2.48123458132033    0.27085274152150    2.55786941749072
C        -0.05151869307166    0.80916832622779    2.92942831703870
C         0.08189604841309    2.26304996942903    2.56169046881978
C        -0.95817773042068    2.78035970597593    1.56247570916521
C        -0.64449403804547    4.22810808670628    1.19528625801472
C        -0.64103548373128    5.10747887105816    2.44351955167414
C         0.36926831336708    4.58651422358347    3.46262988419218
C         0.07054956189270    3.13477803022856    3.82782055103894
H        -3.26109267025433    0.00183077859462    3.75565401974715
H        -2.66343161057782    1.65350052277166    3.54184042814363
H        -2.44389963531823    0.82099014811766    5.07894098150307
H        -1.17770905039222   -3.17015452003325    4.57088092646037
H        -1.30714414605533   -1.92532983248862    5.81180965895633
H        -2.54653584605319   -2.05557824065853    4.56548741989342
H         2.06921139865768   -2.06679628942726    5.00456897489612
H         1.05860447783122   -3.30221661731257    4.26576777659559
H         2.40040353484966   -2.58148547737023    3.35561875951067
H         3.13445686811366   -0.59623792552300    2.58047120129025
H         2.50409454970627    0.69453860827285    1.55560684247733
H         2.87256333532855    1.01482756680871    3.25185654874961
H         1.05855993887411    2.38674888065119    2.08418838892574
H        -1.95984159119191    2.74549686179817    1.99154136695188
H        -0.93810723500944    2.15692691225013    0.66738382731011
H        -1.38518976883464    4.59663420819647    0.48243635546170
H         0.33348470709168    4.27937165490716    0.71144984261256
H        -1.63858331831153    5.11188131543345    2.88989833386018
H        -0.39605441374513    6.13647362614089    2.17226322181749
H         0.34162433858551    5.20423308151677    4.36284607208344
H         1.37503157801291    4.65856366687500    3.04171224100373
H        -0.90539478970864    3.07793562364937    4.31084807997167
H         0.81702734488022    2.76978141491373    4.53631831455813
C         4.38094445394333   -3.26388986668740    0.81306931638490
C         3.13464633211103   -4.10027833693525    0.53868345414059
C         1.90806535646053   -3.24778119023658    0.16050022428423
C         1.61479567072199   -3.28472601576709   -1.34329676979579
C         2.71698763783084   -2.65475783723273   -2.18713113758589
C         0.66997938245032   -3.74869092822269    0.94089528054681
N        -0.44096623553251   -2.84039326810887    0.82930441814239
C        -1.41174216182564   -3.13760880649331    0.03689752816739
C        -2.48452800730568   -2.18803266557270   -0.08630278830729
C        -3.56711378550819   -2.34184500095654   -0.93402531636721
C        -4.54890881324621   -1.34343367074186   -0.99261192283065
O        -5.56976409826305   -1.55007203810643   -1.81692106580581
C        -6.60507381117146   -0.58133023544551   -1.91074059071103
C        -4.36639470209070   -0.21598700491657   -0.17702018986440
C        -3.25609885570252   -0.14215639143175    0.63673467046124
N        -2.33385027225633   -1.09743683498774    0.70711640144908
H         5.22944418937791   -3.91238518017354    1.02055580591967
H         4.62995114467628   -2.63808751178224   -0.03872168518638
H         4.23203201514596   -2.61776565814951    1.67520139545820
H         3.34669131759673   -4.80337628776062   -0.26770201714251
H         2.91883309380726   -4.69518206238133    1.42836147265777
H         2.08479333417285   -2.20598261378344    0.44546700708513
H         1.46445486267269   -4.31998875647634   -1.66004391030424
H         0.69375474250782   -2.73025800309816   -1.53415730459595
H         2.42538239776816   -2.65181534820685   -3.23522616676925
H         2.88189411210303   -1.62478482899683   -1.87987684180606
H         3.65027510831522   -3.20408034237638   -2.09913193433822
H         0.38969088079034   -4.73596053991759    0.55975864870773
H         0.92976377661352   -3.83392979913966    1.99575627185952
H        -1.43390925561423   -4.06508727421965   -0.52519501717940
H        -3.66140728359759   -3.21426190977156   -1.55868299608616
H        -6.21726584289764    0.37537474520309   -2.26643961279097
H        -7.10684826765916   -0.45055905442768   -0.94952840985348
H        -7.30864633323271   -0.98132111071761   -2.63741965535521
H        -5.07122579138705    0.59790386389048   -0.17242555162245
H        -3.10168504483226    0.72523655083465    1.25911628817240
Cl        0.26071600253340   -0.09661909009343   -0.36443619878758
