70
 energy: -98.290856646045 gnorm: 0.000397347879 xtb: 6.4.1 (afa7bdf)
Ir       -0.83666229117790   -0.70680931214514    1.38612035627338
C        -2.13195940916018    1.57300999409263    3.72284607555125
C        -1.04120123462160    0.68754009134290    3.21837666552800
C        -0.95110757880724   -0.70776756823232    3.60399630154048
C        -1.91178280033603   -1.39407314754684    4.51540729293793
C         0.35106069376225   -1.18419259788203    3.25079963605287
C         0.95490097225348   -2.46411700429584    3.71372118998505
C         0.99779037566543   -0.15396865065323    2.50294410084305
C         2.42469321797296   -0.16787799015643    2.06468992218586
C         0.14990671744782    1.03241257778408    2.53289773536744
C         0.66478602928460    2.39171271487441    2.14514313925021
C        -0.22631505810713    3.20483259686555    1.20091983689321
C         0.47364755731169    4.51005096142362    0.83105310880945
C         0.78271381527996    5.32667106396881    2.08349772161303
C         1.64612808469635    4.51805654013072    3.04821412979067
C         0.95958855239641    3.20587539148832    3.41732285251829
H        -3.11188644263188    1.13691715563985    3.54003765816595
H        -2.10136897307669    2.55839236803691    3.27332448395526
H        -2.01278268017910    1.68076645306776    4.80181219293948
H        -1.83646586139414   -2.47389308860085    4.42620785219454
H        -1.68140716490167   -1.12304630679353    5.54648451928046
H        -2.93477753665943   -1.09260942597443    4.30841041538003
H         0.20986727363547   -3.25077822759446    3.79682014118045
H         1.74800190796107   -2.79974990132650    3.05197608241972
H         1.38341586163096   -2.30154430530005    4.70349915889841
H         2.80286103615493   -1.18420796264941    2.00607712194484
H         2.53870481867845    0.30063917176471    1.08996086096201
H         3.03102195957773    0.38475664955211    2.78295770186353
H         1.61414360252922    2.24235482029082    1.62255875356798
H        -1.17779103642550    3.44690761731852    1.67526560182413
H        -0.42085071223436    2.62350230817851    0.29842922975771
H        -0.16102173258077    5.08853708068830    0.15672732351291
H         1.40310197336968    4.29000296142677    0.30086780273990
H        -0.15192408337251    5.60492946963497    2.57681979561091
H         1.29859977509546    6.24879911270380    1.80829388340966
H         1.83555523993990    5.09877102641754    3.95338261730234
H         2.61089412811986    4.30875583673131    2.58006486962279
H         0.02939576786091    3.42087154147536    3.94377239997700
H         1.59909769808925    2.62749336519841    4.08698290844248
C        -1.92379999274707   -3.09179864725029    0.27731026462494
N        -0.79688385998692   -2.57555929504288    0.65349770942987
C         0.37221703228597   -3.34754699356237    0.61558681983966
C         1.53266094256035   -2.79897224051929    0.07057417344279
C         2.68660539096812   -3.55741740695117    0.00866485575503
C         2.70010790182707   -4.85350036719596    0.50295977970352
C         1.54878887842198   -5.39630727627788    1.05392000783284
C         0.38392037719749   -4.65412555164787    1.10699448840611
C        -3.06810469187114   -2.23344637874610    0.27673633159064
C        -4.34285882464922   -2.65700633747351   -0.15022130431214
C        -5.36737551158340   -1.75445026780453   -0.18063959644148
C        -5.10862780744874   -0.40449813719612    0.14009811182211
C        -6.09587333714306    0.59638573712452    0.05322122578933
C        -5.78756746872195    1.90586037685309    0.30746673127516
C        -4.47396379965373    2.26758861446140    0.64684789729809
C        -3.49807300776646    1.31586740105598    0.77003878325634
C        -3.78809247077389   -0.04140163546811    0.54040116906573
N        -2.81626281186533   -0.97652968848783    0.66919571477743
H        -1.98937071613902   -4.10729374698780   -0.09548760162642
H         1.50024380946508   -1.79762404012638   -0.32848348113172
H         3.57872720489973   -3.13534378310124   -0.42747206587657
H         3.60536589326212   -5.43876543338103    0.45992108772048
H         1.55858321489627   -6.40249256414314    1.44321489956124
H        -0.50747918368082   -5.06906640276023    1.55219907890016
H        -4.48488624843867   -3.68610673029028   -0.43658290341717
H        -6.36403048979578   -2.04814074928099   -0.47198062610001
H        -7.09509002955855    0.31044332948319   -0.23751797462779
H        -6.54651426541962    2.66867236693595    0.23096434630307
H        -4.23707460315750    3.30812996238717    0.80507359506383
H        -2.47792629796436    1.58322131839038    0.99188493937489
Cl       -0.33729069049438    0.11598018605257   -0.79723989738135
