74
 energy: -118.367675442016 gnorm: 0.000536461946 xtb: 6.4.1 (afa7bdf)
Ir       -0.49197327744273   -0.49652829527077    1.33540957801975
C        -1.89435747373244    1.32035747499787    3.89232506769728
C        -0.69565627670214    0.66546818967579    3.29959277999247
C        -0.30244246007325   -0.69576583289738    3.54242616905421
C         1.01139795181919   -0.88552698583395    2.98084250461788
C         1.90472436260177   -2.04404235143012    3.25791022921339
C         1.36699587129595    0.30221919203415    2.28334105038696
C         0.30248545204619    1.27644190081295    2.48675843161941
C         0.43531686821280    2.71704327217715    2.21298500250040
C         0.40657497176288    3.60929875605386    3.28413306602658
C         0.60103036386694    4.95961939768630    3.07453922972627
C         0.82564048513867    5.46032097387599    1.79305094543258
C         1.05545325323515    6.89658984245782    1.57648735434380
C         2.03184841258915    7.32798256520298    0.68045621812077
C         2.25998681080695    8.67750475940761    0.48368394005130
C         1.51275932184775    9.61854557304783    1.17351593441555
C         0.53644243063028    9.20090239230626    2.06339846959375
C         0.31120862788847    7.85164525368309    2.26638762744641
C         0.83701385778123    4.56522047715188    0.72432404385110
C         0.64617656772234    3.21310524439512    0.92866942120637
C         2.69528179689596    0.61580535028213    1.68868578236714
C        -0.99191521572756   -1.62687911414042    4.48053040062990
H        -1.73946440649703    1.42976824344169    4.96623854088251
H        -2.78735898290695    0.71535937687918    3.75031093924994
H        -2.05898911244530    2.30350082191680    3.46119239267500
H         2.43696372990421   -1.85245185307921    4.19065161668471
H         2.64033145868270   -2.17694828212658    2.47002734058648
H         1.34226428624289   -2.96642976543276    3.37333625317517
H         0.26465758169372    3.23846481068966    4.28749653759940
H         0.60564285376307    5.63340131857118    3.91813123838764
H         2.63056309038023    6.60101575756213    0.15111560628574
H         3.02525137824945    8.99784757470410   -0.20864223802098
H         1.69065518967103   10.67263561016897    1.01817612698421
H        -0.05113272530561    9.93128037410411    2.60088848302888
H        -0.46182929043877    7.53651984202019    2.95208048638668
H         0.98318285557186    4.93503190433425   -0.27936010675132
H         0.64066316569556    2.53804122684532    0.08600335932458
H         3.22027036196786   -0.28922653399886    1.39660056964137
H         2.58868358755570    1.26086804150773    0.82081631182086
H         3.29838893931195    1.14390797919321    2.42843067002454
H        -2.06986022284161   -1.49631407659063    4.43901475245896
H        -0.74868616590438   -2.66192113700098    4.25808428411281
H        -0.66487929001020   -1.41445306747918    5.49920230585394
F         3.47153841564974   -5.96629277211565    0.37897872345250
C         2.44881579624950   -5.09301533893172    0.45814635751044
C         1.26231169709078   -5.50163786291986    1.04566788231080
C         0.21093405771447   -4.60842234560439    1.11645355378150
C         0.35766109278164   -3.31235500667255    0.61619153319811
N        -0.70046488982080   -2.39625561565394    0.66897939586336
C        -1.89560540336083   -2.76337502522411    0.32712653961873
C        -2.91343153323185   -1.75958395004304    0.33675577994919
C        -4.24829263175374   -2.01651262367310   -0.03631433248783
C        -5.14362951978919   -0.98618953727495   -0.05843643533873
C        -4.69573298023268    0.32556020379861    0.21929015051565
C        -5.55365626054307    1.43724645905918    0.13919812578918
C        -5.06645427831933    2.70131293140138    0.35667043103578
Cl       -6.11357235323506    4.07279912681003    0.24514788541755
C        -3.70551456047414    2.90315703808542    0.65005804611232
C        -2.85980559347866    1.83498524833146    0.76140139340024
C        -3.32565351251763    0.51853520013081    0.56944596134563
N        -2.48361738022634   -0.53601426024711    0.68688994535355
C         1.56995402263186   -2.91590922021968    0.04872548093826
C         2.61722797088368   -3.81174307837264   -0.04301115893992
H         1.17296087919266   -6.50350690724462    1.43358721570098
H        -0.71437916244404   -4.90553552672578    1.58502346110106
H        -2.10605553854519   -3.76616636871295   -0.02590524977151
H        -4.53679726590193   -3.02391662105952   -0.28734635099808
H        -6.18019245003739   -1.14967001663730   -0.30853047033157
H        -6.59111462667268    1.28305425288001   -0.11066667637077
H        -3.33647705370724    3.90732612487297    0.78052232621849
H        -1.80993848301576    1.99484373347958    0.94836336341318
H         1.66265007737632   -1.91686273692846   -0.34942952910139
H         3.55443735919381   -3.53331624336771   -0.49698099918375
Cl        0.02787512373916    0.16339553687606   -0.89965406619723
