75
 energy: -127.792780811456 gnorm: 0.000859909914 xtb: 6.4.1 (afa7bdf)
Ir        0.35080489309691   -0.51332200687978    1.27140234675407
C        -0.73327822772879    0.68669800349620    4.19716366513413
C         0.41944315668306    0.31598700160194    3.33017383957984
C         1.10170654676598   -0.93997079357919    3.34571335494060
C         2.21969475771244   -0.85082196125126    2.44320466451422
C         3.32863680644918   -1.84066837732061    2.33527690176478
C         2.27952421109770    0.49804742488962    1.93917180683517
C         1.14576441522854    1.20632851618847    2.44282473259952
C         0.88916199603655    2.63505725056828    2.22864788450131
C         0.64859126236581    3.49349461406025    3.30073376786754
C         0.43470894196028    4.83979677938381    3.08221828479098
C         0.45369571154802    5.37108531910695    1.79315894849335
C         0.23252754339990    6.80591803533203    1.56462142009850
C         1.00593991529150    7.50314123654944    0.63853005110435
C         0.79876206535263    8.85342902258648    0.42446451451832
C        -0.18835208553191    9.52648678322821    1.12603077821064
C        -0.96495048584910    8.84162380584919    2.04678159196563
C        -0.75434685558676    7.49310909209138    2.26832739121357
C         0.69491253700170    4.50988487233299    0.72343826297081
C         0.91081428543355    3.16331865258028    0.93523427913328
C         3.40208953317619    1.06423497441233    1.14935753610605
C         0.80749535481141   -2.09209517236664    4.24026513293859
H        -0.36901177366966    0.90889444395785    5.20092112081992
H        -1.44293148692253   -0.13318205793894    4.27945632572514
H        -1.24571995599535    1.56504031521786    3.81389872162391
H         4.07510576687006   -1.61422744971004    3.09774066281256
H         3.80778616140526   -1.78572993202440    1.36236606245005
H         2.97086470691463   -2.85247709610246    2.49818734892813
H         0.66431207114197    3.11290777912083    4.30928832020235
H         0.27341094929575    5.49587111042644    3.92404935839784
H         1.78804039577960    6.98943475815097    0.09878845052880
H         1.40974455888159    9.38372977615800   -0.29160980920731
H        -0.35158280827230   10.58055794269536    0.95632514591525
H        -1.73821340615075    9.36174232484242    2.59325381423787
H        -1.37623291729761    6.96172577413056    2.97367469934825
H         0.69441249515108    4.89722174650403   -0.28406564213767
H         1.07793108619447    2.50647370828595    0.09353770890841
H         3.36442016631875    0.71689247657942    0.11691286015980
H         3.35741129102795    2.15021990521922    1.14687388975604
H         4.34835073216689    0.73815624644992    1.57685497545858
H        -0.22118244887554   -2.07243758278344    4.58684288431600
H         0.99879506535926   -3.03771080861472    3.73853138280764
H         1.46184128770411   -2.03517424778142    5.11072793952903
C         3.91414074981955   -6.27369789653864    0.26502533387565
O         3.22202160867153   -5.04012852797448    0.17036380166397
C         1.96547780783023   -4.95461914761324    0.63133103381218
C         1.26416434731289   -5.99950862962258    1.23594508792619
C        -0.02926206388917   -5.76685281699381    1.67034995151044
F        -0.69682789677285   -6.77872219350850    2.25889762604956
C        -0.66887619355399   -4.55174002446088    1.53067233425271
C         0.04581434894908   -3.51169817864501    0.93019005464546
N        -0.55034660363635   -2.25249489989544    0.75899474740631
C        -1.73463426682540   -2.17472764470912    0.23249879359869
C        -2.30902212142202   -0.87037486844176    0.10091199688000
C        -3.54234663223167   -0.60327059987996   -0.50210223492425
C        -3.98868018833567    0.70037628330839   -0.57435374065418
C        -3.17576179901509    1.70480512942820   -0.04234864656900
C        -3.58643094236930    3.15254520993538   -0.10105756515741
F        -4.91569145376987    3.30777064970814   -0.14792943931088
F        -3.15012483311096    3.84403669952823    0.96243390850032
F        -3.08914165874802    3.77100536354489   -1.18675187393447
C        -1.95714614611524    1.37513350436647    0.53098042648314
N        -1.53582115283452    0.12107221705120    0.61206520189493
C         1.34651037470048   -3.70719110311614    0.49197880500877
H         4.89581424993257   -6.08676940672882   -0.16334241052332
H         4.02378261549284   -6.58696151440006    1.30562458570000
H         3.41007487388905   -7.05564724673302   -0.30732988588185
H         1.68965876296552   -6.97908665581481    1.37440934390669
H        -1.66986585926048   -4.41512112425569    1.90372436998860
H        -2.25849018475837   -3.05380074332734   -0.12327299430258
H        -4.12785748659458   -1.41274720540893   -0.90742332259656
H        -4.93903372560782    0.94502750640123   -1.02308890550759
H        -1.31237934534123    2.14598666696248    0.93327637749348
H         1.87631777327350   -2.91013874176099   -0.00385576585887
Cl        0.98964582526942   -0.29763526575749   -1.00021437202743
