69
 energy: -127.637296171498 gnorm: 0.000401930054 xtb: 6.4.1 (afa7bdf)
Ir       -1.03059332077453   -1.22116932096876    1.61012703108854
C        -2.37050767409357    0.55611058131576    4.20669589549119
C        -1.17204433107620   -0.01512956969291    3.53262676693394
C        -0.58025536430497   -1.28327403673406    3.83532661571764
C        -1.02562326006575   -2.16994853971228    4.94566917868021
C         0.65990310145398   -1.38139663056233    3.10049076281530
C         1.71898564550369   -2.41313523522248    3.28991116396927
C         0.81483433344003   -0.19527401837993    2.33132953610298
C         2.03664619835250    0.19907015212015    1.58469230353781
C        -0.34628978029259    0.64280029828660    2.56337688204426
C        -0.45635954393508    2.05529250199340    2.15830584042802
C        -0.44686072272785    3.03998407805251    3.14476975203319
C        -0.49954730022939    4.36823107609758    2.76618585205928
F        -0.48229178330047    5.31531563464436    3.72551043165887
C        -0.57131016377051    4.76372726616774    1.44209114835361
C        -0.58524698775777    3.76082648245814    0.48836659708256
F        -0.66045049449063    4.10884124617866   -0.81200059520524
C        -0.52935751287579    2.41938749240194    0.81694775005562
H        -2.67714810762142    1.48581923427705    3.73598644893070
H        -2.12353944996707    0.76322340231639    5.24830648004254
H        -3.20299142543696   -0.14370399481473    4.20202833660026
H        -0.63609046659517   -3.17724964351312    4.84125978254316
H        -0.64673597847711   -1.76020676889098    5.88312002177739
H        -2.10922871272131   -2.20161574705939    5.01452273374792
H         2.49977911297571   -2.00168146293206    3.92999578938457
H         1.32629600066365   -3.30684986670907    3.76301874072874
H         2.17597783583095   -2.68435221180861    2.34068657889081
H         2.43113389881917   -0.63554989489236    1.00985514393508
H         1.83381966790389    1.02650768159358    0.91089944205563
H         2.80226771589224    0.50890287478476    2.29725782005991
H        -0.37337939008498    2.78615932731118    4.18968012971788
H        -0.61018495375884    5.80427408901980    1.16584810246093
H        -0.55102176732661    1.67221381359636    0.03894782083100
O        -0.79989246088842   -4.83860121748954    3.08235692361599
C        -0.05759771588792   -4.88997856847505    1.97095987442441
C         1.01220067413003   -5.78384813745611    1.92265401239891
C         1.78947818226678   -5.89679065157927    0.78950998680938
C         1.49483993555665   -5.12062952065991   -0.32853914255933
C         2.34010323951602   -5.21502677790245   -1.56377776140559
F         2.96070319802317   -6.39875795617975   -1.69050700068279
F         3.31801809786772   -4.28048659127591   -1.58679097278671
F         1.63443363494499   -5.03253177836472   -2.69437918111915
C         0.43929348439267   -4.22258393611023   -0.30341101020347
C        -0.32669702557476   -4.08819039857086    0.84804318938099
N        -1.35667065511635   -3.12482999090399    0.89381375996310
C        -2.39303925504011   -3.25114052964567    0.12036691329939
C        -3.32793627227774   -2.17548745564693    0.10907699439506
C        -4.52148031354024   -2.16224830672773   -0.62218251145584
C        -5.32100626244803   -1.04608380121011   -0.58689689266737
C        -4.92241134957468    0.06286868399688    0.18270740509063
C        -5.73389106840502    1.24559865745220    0.25004062158073
C        -5.56991475582142    2.44350911378788    0.92043076477125
C        -6.69623967102596    3.22633705893359    0.61452511791779
C        -7.46979152034260    2.46155173814125   -0.21615830426922
O        -6.90176363435231    1.27671091280428   -0.43859193322436
C        -3.71372259694986   -0.02787146140357    0.88573386849923
N        -2.94767067317684   -1.10567934157190    0.86060702657724
H        -1.58473276516370   -4.28073851198270    2.96927901286782
H         1.21219955345941   -6.38938617599486    2.79133047004056
H         2.61435627471125   -6.59072088432215    0.76170629142335
H         0.22336933835708   -3.60028338024026   -1.15797655063530
H        -2.53529199903309   -4.12984580946220   -0.49814315445300
H        -4.79129393529770   -3.02420507730067   -1.21088077521505
H        -6.24372256754578   -1.00203927517623   -1.14286239233524
H        -4.74889037018242    2.72904010481299    1.54418718982366
H        -6.90852768783471    4.21678262213401    0.95970123997722
H        -8.41117333152448    2.65543193936883   -0.69183211112550
H        -3.36936301373912    0.80381109841492    1.48025102402080
Cl       -0.39839973167398   -0.81239468492691   -0.65230027727565
