80
 energy: -115.408623591748 gnorm: 0.000262157026 xtb: 6.4.1 (afa7bdf)
Ir        0.10066969068910   -0.75248486151762    1.60059480141925
C        -1.86284761662726    0.19582483011432    4.14945712418007
C        -0.48735566612518   -0.05961364547039    3.63751815511430
C         0.23130169501504   -1.28436296823522    3.78251287740906
C         1.55611465404335   -1.08962314762265    3.24774938787879
C         2.71074414219937   -2.02550680396712    3.39387145212206
C         1.67529580558806    0.28701891428187    2.85260193092890
C         0.40082605658729    0.91198553536060    3.03631051935366
C         0.13384117219838    2.34088053631718    2.83029185611615
C        -0.42743426152942    3.12258700512480    3.83890377981634
C        -0.64067610190425    4.47259594024537    3.63944048073479
C        -0.29785002043529    5.08324237568416    2.43385967737285
C        -0.50268027068895    6.52520436841459    2.23389903253227
C         0.47296209430524    7.29465667687678    1.60302012027470
C         0.29073072682753    8.65386529842305    1.42634514999606
C        -0.87122139982419    9.26431846721685    1.87001109828343
C        -1.85020983425569    8.50710182993978    2.49292935920315
C        -1.66676587452872    7.14900898622635    2.67741317104351
C         0.25973474534051    4.29684295973921    1.42626605766874
C         0.47314529557895    2.94685819059668    1.61876933169380
C         2.93921802860267    0.95762118012223    2.44950462951237
C        -0.25252947015413   -2.48059068294366    4.52648737453735
H        -1.82287740571989    0.34785565260271    5.22864056853565
H        -2.51451962773175   -0.65437683719290    3.96166973430486
H        -2.29246002291996    1.08237828340099    3.69167702890255
H         3.20883485515954   -1.83350058210036    4.34502303272772
H         3.43300311377736   -1.87428895553036    2.59640732154736
H         2.38868960709885   -3.06233960117455    3.38598407491486
H        -0.66446079436896    2.67973751862190    4.79328594924338
H        -1.05124369009404    5.07029067932151    4.43915368628358
H         1.38954735050619    6.83010068400514    1.26982818777077
H         1.05853459241241    9.24050245205181    0.94302464324544
H        -1.01237134623058   10.32608862719731    1.73129592746843
H        -2.75906246735688    8.97870878301383    2.83695230995516
H        -2.44067419498671    6.56355078124902    3.15180167336106
H         0.51849030119069    4.74798978085898    0.47994213031920
H         0.88950618149604    2.34679570214540    0.82266275714476
H         3.22931899372488    0.66774065206555    1.43988067497874
H         2.82130572636312    2.03805534470730    2.47270572435674
H         3.73974901551562    0.66539541637777    3.12684277235002
H        -1.31232262268055   -2.65132352193349    4.35771965450270
H         0.30110677305195   -3.37359652539416    4.25229426605042
H        -0.10573626699748   -2.31139198864762    5.59392934251741
C         6.18963711010318   -5.86547695285080   -0.59129014930205
C         4.82018412020004   -5.99224188313943    0.06708175505424
C         3.94454555562949   -4.77021805012686   -0.20479228825116
C         2.57565934093138   -4.88568627336752    0.46340236690181
C         1.71663879708287   -3.65513984479657    0.18636735812236
C         0.35484845779245   -3.75014181268354    0.88901852081657
N        -0.38674135122375   -2.52764299503751    0.71378038801588
C        -1.34084831412587   -2.48204336427424   -0.15026865805881
C        -2.01811114115736   -1.22974955802710   -0.33114250181171
C        -3.03576403375237   -1.00777240534650   -1.26338752857109
C        -3.57857711270260    0.25186708274704   -1.36359296534960
Br       -4.95821687280044    0.64461566250883   -2.60839592786236
C        -3.10744531350358    1.29390963967303   -0.53390274247251
O        -3.66653248278090    2.48871157707227   -0.68233064721706
C        -3.22027882436727    3.58284803411439    0.10350771486909
C        -2.09998176847545    0.97470434499063    0.37881884166200
N        -1.57659971586227   -0.24152794834948    0.47563237192670
H         6.08812156689701   -5.75420890757937   -1.66904627969201
H         6.79221166285451   -6.74959158818954   -0.39480986640455
H         6.72125674934878   -4.99715038563628   -0.20740663572279
H         4.94968325907792   -6.11501420670204    1.14488904879271
H         4.32094511261987   -6.88772861798752   -0.31007734944487
H         3.81531355414253   -4.65467117045830   -1.28310773267802
H         4.45430639876897   -3.87690319822461    0.16183624282459
H         2.71453674635711   -5.00602041829943    1.53942453777462
H         2.07015899296721   -5.77957909946282    0.09273258505698
H         1.55537372633190   -3.55026370580622   -0.88748788675887
H         2.23269393200147   -2.75746867719282    0.52822647698227
H        -0.20730820531149   -4.59649579095950    0.48320207350661
H         0.51254961117553   -3.90803729639760    1.95716838575398
H        -1.63147240584973   -3.34920031864204   -0.73359442791827
H        -3.37700186353590   -1.80850739050014   -1.89920302166524
H        -2.15656767116716    3.77492758965701   -0.05109898320835
H        -3.80025994424875    4.43622675372923   -0.23984396659218
H        -3.41540809785129    3.40881725067883    1.16351367294686
H        -1.69747388290540    1.72927836270344    1.03830955204827
Cl        1.26575264518038   -0.22353076872906   -0.40550216160643
