77
 energy: -113.816854076773 gnorm: 0.000165461929 xtb: 6.4.1 (afa7bdf)
Ir       -0.13395598932345   -0.06570444996330    2.21643082622915
C        -1.93745484816401    1.99946520365498    4.34463584384229
C        -0.69311290230438    1.27175725002838    3.96093239315334
C        -0.31476682401626   -0.03478356478447    4.45004093225733
C         1.06909125100176   -0.24183082694714    4.13679534476838
C         1.92510479258583   -1.33306565913876    4.67696534080317
C         1.51818041067221    0.87268896169736    3.36142369067340
C         0.43319343987517    1.83845338378238    3.30387486812664
C         0.54891982421521    3.21679273628219    2.81608652272519
C         1.56885960150492    4.02864351359611    3.31155710649341
C         1.69346179337485    5.33543343713800    2.88691821148029
C         0.81797453288816    5.86689279692396    1.94151492538810
C         0.98189674997295    7.24847776701700    1.46627339283943
C         0.83758125084780    7.55489489395153    0.11455133477928
C         1.01358623270930    8.85045266211059   -0.33573377729803
C         1.32828620997480    9.86204016548841    0.55714919211956
C         1.46724987631219    9.56977828318325    1.90432227413173
C         1.29897476507734    8.27358794494780    2.35553821193792
C        -0.20246611588967    5.05322213220347    1.45156687885318
C        -0.34245688160349    3.75154429366253    1.88849412416396
C         2.92745817143580    1.13169010717988    2.94303702109404
C        -1.12949257562674   -0.87538028775945    5.37285401464849
H        -1.77848614809771    2.45681480167319    5.32262318217534
H        -2.78751842212224    1.32741800493846    4.43165226835588
H        -2.16375732223285    2.79559544456374    3.64085126611172
H         2.31024823633264   -1.01728375791604    5.64752234469394
H         2.77543596784232   -1.53340116939656    4.03238034455157
H         1.35828507673633   -2.24701290317351    4.82775788126647
H         2.25342910117643    3.64051966222109    4.04926896199363
H         2.49606154990253    5.94683581915212    3.27169273441526
H         0.61038055851991    6.76834551644536   -0.59036206870319
H         0.90819653610577    9.07303768476703   -1.38776559757779
H         1.46522162412540   10.87369404689798    0.20432187948278
H         1.70745059788403   10.35624386236637    2.60521974122694
H         1.39528783047463    8.05690049162665    3.40945093068001
H        -0.89888463959644    5.45137701829666    0.72856265382112
H        -1.12016015223629    3.12904160308341    1.47252519354754
H         3.41605561850771    0.21877942150020    2.61084129745956
H         2.95696075919706    1.85930699674085    2.13621486426919
H         3.49733935700013    1.52241499097444    3.78644648387880
H        -2.19170737524584   -0.76407360693126    5.17543447483505
H        -0.86443445098888   -1.92541909773674    5.28782182451046
H        -0.94137623275606   -0.56080148444731    6.40007707229174
C         2.77414344290350   -6.17587372028748    2.92818101385377
C         3.62748087457662   -5.40209239243690    2.28353627746088
C         3.34317608942079   -4.07802212648174    1.63842673011435
C         1.89730774763132   -3.60476681523384    1.75987641429181
C         1.72066132461524   -2.24078192437339    1.07606026059800
N         0.36929085340962   -1.74528741655695    1.21422542167841
C        -0.56018544249020   -2.29351785862503    0.50835258973846
C        -1.88239656075072   -1.74970216242600    0.62238682851650
C        -2.99335913431793   -2.22658286897468   -0.06951473938258
C        -4.21575673278601   -1.59312685525088    0.09889555390637
C        -5.41200684970747   -2.12336567426481   -0.62763159434319
O        -5.35977540661777   -3.05384113031783   -1.39676364569550
O        -6.51733881628983   -1.45949007230567   -0.31718396689598
C        -7.72852645681872   -1.88590172290805   -0.94113298035257
C        -4.28040883189345   -0.47886525786441    0.93936805585643
C        -3.13244122976190   -0.06115718677233    1.58543884410814
N        -1.96159701693245   -0.68210777988355    1.45532937110239
H         1.73660034409874   -5.92397944319752    3.06126970063084
H         3.08633861706693   -7.11396609052555    3.35444483061050
H         4.65898080667099   -5.71716751729819    2.18292920846871
H         4.01516956048060   -3.33746249479079    2.08217360435038
H         3.61658232837334   -4.15347576488475    0.58167325212264
H         1.62428231003279   -3.52237762518259    2.81094013857923
H         1.23723049470284   -4.33395627804209    1.28969840671074
H         2.39962056246821   -1.51164630279528    1.51831787907347
H         1.96453527388751   -2.33248306566928    0.01313949643546
H        -0.35849911300544   -3.10585420850010   -0.18089742563641
H        -2.91487234932422   -3.07498680999739   -0.73133496847274
H        -8.51709790821995   -1.27839750725748   -0.50682588193123
H        -7.67051598437101   -1.73131667697041   -2.01959903589522
H        -7.90005919366853   -2.94536422451662   -0.74498727564809
H        -5.21096523583414    0.04439570359711    1.08271504007850
H        -3.15582893406802    0.80269474183958    2.23254883704615
Cl        0.20560772978863    0.94421443899362    0.08252535258997
