77
 energy: -114.085503597090 gnorm: 0.000548393914 xtb: 6.4.1 (afa7bdf)
Ir       -0.70719894354726   -0.77888898042627    1.54374749605784
C        -1.73446869505795    1.63648972132841    3.89644118269756
C        -0.72135920318325    0.69816060479232    3.33988779017169
C        -0.65552275453791   -0.69035853203047    3.76268890411966
C        -1.57960608038954   -1.31193441973544    4.75345716851252
C         0.59663315557160   -1.22716231307174    3.33745758564936
C         1.20825214954747   -2.49582470785504    3.81864264500550
C         1.21243906262352   -0.24988657554073    2.49039384971532
C         2.59957565304551   -0.33146430110839    1.94641907060930
C         0.41959228641616    0.97481765636024    2.55335598203369
C         0.95581435283174    2.30194356307492    2.09200212984070
C         0.04559559558523    3.08751006078452    1.14434372889567
C         0.74376068266429    4.36916193254206    0.69900631796231
C         1.10863232034388    5.22922747015290    1.90626946434131
C         2.00208060844162    4.44823162608701    2.86604041014925
C         1.31254498021160    3.16336598514816    3.31583203997241
H        -2.73693286350826    1.21995487452645    3.83066784380856
H        -1.72854858817084    2.59348980936184    3.38986224254896
H        -1.50960889313091    1.79301097217549    4.95249461769746
H        -1.54699553446030   -2.39630528758726    4.69590272213544
H        -1.27921344065057   -1.01578352295296    5.75910446728080
H        -2.60230945230057   -0.97933216807549    4.59757621605675
H         0.45493008619147   -3.24927377627449    4.02970601291878
H         1.91981433473882   -2.89893370339382    3.10417790239925
H         1.74109421242101   -2.28261368800238    4.74628387157740
H         2.93173886177091   -1.36373100317177    1.88572860213216
H         2.65410542858828    0.11848940241069    0.95752354538646
H         3.27890629450712    0.21048302121438    2.60506396549537
H         1.88343384822883    2.10859711981574    1.54507954654870
H        -0.89094507347422    3.34698416911305    1.63751501881555
H        -0.18434717264265    2.46746543515286    0.27736596741331
H         0.09055484703220    4.93082246646568    0.02824795268763
H         1.65082752789054    4.11983454919690    0.14370048572223
H         0.19652303439002    5.53437306351796    2.42453867711810
H         1.62112193544679    6.13510780611076    1.57613915527501
H         2.23637922099773    5.06183290521356    3.73851224349849
H         2.94372917015972    4.20687886884171    2.36736758845996
H         0.40763911278965    3.41679782011335    3.86741140876560
H         1.96929274421203    2.60258503608030    3.98398894963070
C         3.57613877856652   -7.31268752194342    1.36484161316735
O         3.54738802681165   -6.02944488334986    0.76748887072775
C         2.43364035049324   -5.28658296781527    0.86109897136607
C         1.27231831516909   -5.65551603769247    1.53129117231474
C         0.17134258717787   -4.81941379396394    1.56093737743147
C         0.23166349362117   -3.56771855897478    0.95290880369432
N        -0.85681266026317   -2.69949558142877    0.97009474825190
C        -2.04902169360167   -3.16513851184263    0.72803644813331
C        -3.11973183495794   -2.23026127773138    0.65055388164970
C        -4.40335811380574   -2.55504103652255    0.19623947318018
C        -5.32680565537317   -1.54851267455532    0.02918623546537
C        -4.93588802094520   -0.22612574692451    0.27836458596711
C        -5.87624367203779    0.81849532005066    0.13688930293063
N        -6.66062954556825    1.64827459389945    0.02972014134144
C        -3.62597384302020    0.03128482938324    0.71223966764931
S        -3.04965415051058    1.67503859847785    0.99152468872953
C        -3.20543550954254    2.36488854735449   -0.68267789355505
N        -2.76421280997214   -0.95372379105312    0.94337684172212
C         1.40122253802875   -3.16931633307909    0.28954141538205
C         2.48526614878230   -4.01994911637626    0.20857345899864
O         3.63179722273878   -3.76008719007297   -0.45328102066413
C         3.72400222471896   -2.57055690168357   -1.21370108029174
H         3.44155327972179   -7.24791958752881    2.44762033081572
H         2.81519840238939   -7.96749975644041    0.93274865338942
H         4.56439931717038   -7.71099717400749    1.14520752855331
H         1.21552970941216   -6.60688950936731    2.03319064782681
H        -0.71405829237169   -5.12199959064643    2.09690958114469
H        -2.20927872296392   -4.20838996153501    0.48682785594452
H        -4.64890223234428   -3.58063581027167   -0.02342728008539
H        -6.33477502133935   -1.75474428200957   -0.29618705120826
H        -2.86992424695806    3.39361478255991   -0.60248847650578
H        -2.54859513135106    1.80748764569309   -1.34419707482808
H        -4.23614969912080    2.33629268461270   -1.01862614870995
H         1.40281522980681   -2.21033957268213   -0.20211051732709
H         2.93072808114691   -2.51615536991652   -1.96342254723271
H         4.69154183328649   -2.61881043817142   -1.70888610212314
H         3.68598504733892   -1.68594555801554   -0.57389925755998
Cl       -0.33872654191814   -0.14170842706120   -0.71459261476451
