73
 energy: -118.192237440767 gnorm: 0.000505200972 xtb: 6.4.1 (afa7bdf)
Ir       -0.94488369130830   -0.80563477477422    1.38120632489318
C        -2.21205790795696    1.52098670982010    3.67338309472839
C        -1.13220915918254    0.61365333638855    3.18847421576473
C        -1.05846708399116   -0.77419890688245    3.59995778840963
C        -2.03002650894089   -1.43694035098918    4.51544767687347
C         0.23424034918134   -1.27628695556258    3.24617735218265
C         0.82196141976745   -2.55576700171475    3.72777952867525
C         0.89438673825216   -0.26640867815193    2.47920269535519
C         2.31523992889929   -0.30978635862171    2.02582695820606
C         0.06371225691511    0.93229061300292    2.49245990704461
C         0.59836228233952    2.27974032781635    2.09057532572950
C        -0.27606080980253    3.09305449743217    1.13075657809665
C         0.44437090414222    4.38434117293043    0.75061617104802
C         0.75424478762749    5.21223710879776    1.99532855597300
C         1.59951528915105    4.40399119713270    2.97621387810705
C         0.89314648582973    3.10541675763746    3.35602781597741
H        -3.19699517214239    1.09683739378634    3.49077125906254
H        -2.16354854225125    2.49999979839783    3.21243950639598
H        -2.09664839996879    1.63903568098714    4.75165879796504
H        -1.97877080169030   -2.51840771025796    4.42803396254707
H        -1.78919752277427   -1.16927058351204    5.54501032046382
H        -3.04634948098658   -1.11188198494721    4.31127169016454
H         0.06883881365895   -3.33296559830280    3.82399785049191
H         1.61484976234506   -2.90838141019099    3.07457930022007
H         1.25037484024716   -2.38057351044795    4.71562118276431
H         2.68234152690505   -1.33102504265389    1.98966134361033
H         2.42214046087914    0.13355978391525    1.03871064776742
H         2.93573785838154    0.25405494150747    2.72267708845059
H         1.54954981751333    2.11160607711097    1.57743409944482
H        -1.22651902556977    3.35403688237653    1.59657035275668
H        -0.47142375038827    2.50420813478657    0.23356082395881
H        -0.17686451817421    4.96284630362890    0.06415706502449
H         1.37506981812946    4.14596125854230    0.23099654492563
H        -0.18004528162671    5.50950941064839    2.47799886808120
H         1.28479230665619    6.12370139155778    1.71305623236712
H         1.78926535510592    4.99268073548228    3.87614240575995
H         2.56525583773751    4.17742887050250    2.51838891344908
H        -0.03821209355998    3.33973207333330    3.87162177125387
H         1.51992685603499    2.52800333153441    4.03810583871458
F         3.70359671244475   -6.96155643937797    1.28241098964065
C         3.71026760799297   -5.91527590005698    0.44210310916299
F         4.83090158416074   -5.22034694618277    0.70957437789667
F         3.87888435964529   -6.42904308583329   -0.79479632710486
C         2.47256753249697   -5.06808561165071    0.53728168675750
C         2.49492220384476   -3.78446803626651   -0.00061816153402
C         1.36149438640655   -2.99776854985830    0.05717167379756
C         0.19601872078300   -3.49879192973061    0.63674695877739
N        -0.95135488068765   -2.69392926670638    0.67137051082255
C        -2.09012690555285   -3.18087227050262    0.28753478029793
C        -3.21056945482061   -2.29483585150728    0.27592699791035
C        -4.49645844154695   -2.69471968147945   -0.14268495051213
C        -5.49960512650630   -1.76991370179091   -0.19096013790359
C        -5.20614094295659   -0.41859298096188    0.10164980182653
C        -6.16990569661988    0.59890621783160   -0.01563268702751
C        -5.82391081835955    1.90701323111556    0.21379657795232
Cl       -7.00087557519730    3.16348190571091    0.04882586929888
C        -4.50353890900961    2.24952040531600    0.55998803563031
C        -3.55850914447648    1.27341717083903    0.70820180917259
C        -3.87816154834529   -0.08299360622092    0.50186272570441
N        -2.92919870863863   -1.03604925078646    0.65027778540828
C         0.17939044620430   -4.78764682845762    1.17154030094136
C         1.31763592278817   -5.57040068191115    1.12437947819931
H         3.39702635712373   -3.40744749085808   -0.45688291827664
H         1.35397292886281   -2.00671382931072   -0.36871550552053
H        -2.17905962707585   -4.19506459762250   -0.08448479156535
H        -4.66397877173013   -3.72596970544516   -0.40720623072535
H        -6.50312033216310   -2.04499971429084   -0.47546198770527
H        -7.17474537344295    0.33934340653289   -0.30807577774905
H        -4.24927410945165    3.28789983868280    0.69637582277284
H        -2.53403629489530    1.52433633106040    0.93107840518810
H        -0.71427088801753   -5.16875876617131    1.64032667373827
H         1.31145854367927   -6.56506390810735    1.54188996010739
Cl       -0.38778270230642   -0.04692879796950   -0.80567958808497
