55
 energy: -88.267375327609 gnorm: 0.000769904915 xtb: 6.4.1 (afa7bdf)
Ir       -0.88823770486141   -1.00751706400365    1.29391723328910
C        -2.20982888343792    1.34105848932703    3.41525406535215
C        -1.08005919941121    0.45965479926207    3.00327151284310
C        -0.84668088583332   -0.87511033405463    3.51535765077553
C        -1.67822936064778   -1.55597067179295    4.54767980704344
C         0.46135673798732   -1.28749088153439    3.09203376621595
C         1.18745167506052   -2.49147424699542    3.58029164232628
C         0.98088146957808   -0.27668229064098    2.22688730296595
C         2.36621351882979   -0.19024263946326    1.68435704148673
C         0.03357046253569    0.82635052198658    2.20612621189024
C         0.31756817860304    2.15530246715934    1.59600516993126
H        -1.94571390974288    1.83009307358783    4.35404034321630
H        -3.11734062964391    0.76737879371257    3.58413228412029
H        -2.39829141973288    2.11713481038389    2.67802713512504
H        -2.73519140349923   -1.34829799545096    4.40638085354212
H        -1.52499680442509   -2.63107186064574    4.52898804206870
H        -1.39106339495706   -1.19051433099617    5.53434835814812
H         0.50965206630284   -3.32160680737795    3.75870086425444
H         1.95161459505859   -2.80803910837290    2.87633820635099
H         1.67502808481361   -2.24421236817738    4.52386781007877
H         2.36056435316294    0.23435430165903    0.68322715233251
H         2.84263513296002   -1.16533118620296    1.65536984163080
H         2.95917230530292    0.46462587437505    2.32354729009025
H        -0.53428055667435    2.82277778321773    1.67783143384919
H         0.57805689067850    2.04628731825841    0.54473298892575
H         1.16743326173414    2.60869409855728    2.10581687507672
C        -5.71935022396302    1.83255049740371    0.42185429914471
O        -5.94650774518074    0.54078939328150   -0.12484254066157
C        -5.00318623191218   -0.38734291503595   -0.05107657466223
C        -3.76755556501547   -0.24567228769993    0.58625831625429
N        -2.85667332651581   -1.21190290159972    0.62370468488326
C        -3.11209501290362   -2.39192199051427    0.01284716701009
C        -2.02269458479286   -3.31595471748439    0.04223376467340
N        -0.91682131527894   -2.90029054076663    0.57444867621927
C         0.20044653513577   -3.74454137068031    0.62677326977738
C         0.10211424521557   -5.02356688895106    1.17509484275933
C         1.21694638983271   -5.83773530540511    1.23593982439664
C         2.42430886349715   -5.38044101380130    0.72845128455378
Br        3.97293720614658   -6.51534768895638    0.80596309667246
C         2.53222267529535   -4.11380988052171    0.16992842515174
C         1.42256543103464   -3.29239029773401    0.13000608776862
C        -4.33103872858127   -2.63201243007830   -0.63120229140155
C        -5.27529805647435   -1.63460022218232   -0.65993723658261
Br       -6.95486894902666   -1.87610829298494   -1.51677901336133
H        -5.59372690879190    1.78021396096766    1.50504669835459
H        -6.61516481251793    2.40303851498499    0.18664944644373
H        -4.85159351970037    2.30507593948720   -0.04229643172157
H        -3.50512896750596    0.67939926761086    1.07483397788308
H        -2.10698572617135   -4.29839413254787   -0.40719004141601
H        -0.84007072553337   -5.36758667177347    1.57363765362268
H         1.15017479288488   -6.82080051242055    1.67267261924041
H         3.47505398490621   -3.77544056750878   -0.22958520346006
H         1.47970173970291   -2.31061972262427   -0.31354348467097
H        -4.51235012008100   -3.58032745547486   -1.10984678337350
Cl       -0.45532292346163   -0.28588131276507   -0.93996841642752
