55
 energy: -88.910890264270 gnorm: 0.000808967603 xtb: 6.4.1 (afa7bdf)
Ir       -0.71991730355688   -0.89615845581282    1.46994043268388
C        -1.93363849818892    1.27092702333882    3.98975570021512
C        -0.85122030660225    0.48858436682941    3.33610074065506
C        -0.52660578375885   -0.87462398396729    3.69220146371755
C        -1.23294988085413   -1.66725031227194    4.73889599424993
C         0.75881768972922   -1.18493045098319    3.13344476363809
C         1.60150376386777   -2.35049138110676    3.51775310455758
C         1.14626866437501   -0.08591247419086    2.30293902624513
C         2.46695239382787    0.10995687059593    1.64302107788785
C         0.14423584592507    0.95906016154370    2.44520579734781
C         0.30878857181519    2.34373346398266    1.92153165822935
H        -1.66984200110157    1.39805623806499    5.04031176678845
H        -2.88759604593374    0.75116065564255    3.95077272682186
H        -2.04799101155809    2.25156209538984    3.54096158632081
H        -2.29883654181160   -1.45841904105456    4.73476756137713
H        -1.07830078808931   -2.73323808085707    4.59773356198893
H        -0.83929036361479   -1.39586248521813    5.71906773651771
H         0.99930268923126   -3.23223886666944    3.71811495252123
H         2.33234444531988   -2.58945016076034    2.75122620929781
H         2.13902524706745   -2.09394769335433    4.43145771697427
H         2.34245960118619    0.55037723922360    0.65629366927432
H         3.00543856165244   -0.82790284722578    1.54674250771242
H         3.06534205080764    0.79602567491455    2.24291850326889
H        -0.63008241640543    2.88905939837630    1.93711696296619
H         0.68079994935000    2.32479068995970    0.89981404344881
H         1.03459131426297    2.87592269396476    2.53719867112621
C        -7.01853548040760    0.47412703484870   -0.66325012270915
O        -5.70585879294866    0.63159849749195   -0.14423226117705
C        -4.92588240719391   -0.43213714850737    0.01006789577285
C        -5.24727537399467   -1.75831471183854   -0.29532509051845
C        -4.28927280906318   -2.73247514782678   -0.10666102799691
C        -3.04105499135596   -2.39259637135604    0.41468890077833
C        -1.94363275717161   -3.30152577319159    0.49507532384669
N        -0.79217748410184   -2.82894699482502    0.85397086279303
C         0.33558995211761   -3.66208728532152    0.83214955747343
C         0.30140516805949   -4.93813997220671    1.39575359335712
C         1.42219141659509   -5.74578039267820    1.35075725470154
C         2.56290590489025   -5.27155744674523    0.72452114723673
F         3.65456410888354   -6.06062477451059    0.67282783385301
C         2.61830949601033   -4.00864119035694    0.15602763142932
C         1.50144904457699   -3.19890421502472    0.22091444832074
N        -2.74352800888715   -1.11479657377289    0.77966183780673
C        -3.64319344569075   -0.17884991341366    0.54194675636549
Br       -3.22883311567675    1.61670692550430    0.88090100351356
H        -6.99381594764926    0.05056246340750   -1.66968367185903
H        -7.43316558471433    1.47906462896469   -0.69950191719094
H        -7.62611629772519   -0.15041607811853   -0.00480354011857
H        -6.21451460661398   -2.01484048498229   -0.69532441436950
H        -4.49129929139791   -3.75751213426179   -0.37172288951725
H        -2.06150354511817   -4.32942242322327    0.17162161942563
H        -0.59220316001447   -5.28628830590897    1.89012485806664
H         1.42131773119811   -6.73075626655470    1.78864722695009
H         3.52343578061639   -3.67788159418777   -0.32723868456194
H         1.50309286008564   -2.21724914842529   -0.22630775497857
Cl       -0.32915821025578   -0.22111754131161   -0.79325031252418
