72
 energy: -116.180113245225 gnorm: 0.000974822954 xtb: 6.4.1 (afa7bdf)
Ir       -0.03735603196701   -0.92443746685224    1.56162206582288
C        -1.71873160372233    0.19016190237665    4.28086288108305
C        -0.41490137273564   -0.02905089385326    3.59361432824695
C         0.42853026413820   -1.16771737676257    3.78615562095729
C         0.15265233382822   -2.24522920479310    4.77852082609049
C         1.65198775243900   -0.94353417647583    3.06243213363043
C         2.90075953921970   -1.75607784993184    3.14224953423657
C         1.58226731663759    0.35365022758447    2.46560742341479
C         2.71847198214833    1.05972297357700    1.81906791122663
C         0.28313312808462    0.90627105546061    2.75007752801265
C        -0.12121429646211    2.29121789715072    2.46657668780864
C        -0.50708277017732    3.12838446271085    3.51182114983063
C        -0.84955383847759    4.43776099824844    3.23147070261806
F        -1.21808128931083    5.24142111708167    4.24947118364135
C        -0.82986327522228    4.95626363782203    1.94866229095881
C        -0.44248326523844    4.09964386654717    0.93260627471252
F        -0.41527291249746    4.56866236552297   -0.33117668835355
C        -0.09001668976423    2.78370223138669    1.16251825382636
H        -2.26812215340593    1.01401850750236    3.83451920808635
H        -1.53446855988554    0.42632213782506    5.32976152568074
H        -2.33221844580623   -0.70696953581541    4.25187431958133
H         0.92102778116931   -3.01156499283707    4.75640414288100
H         0.14308753792891   -1.80309992273766    5.77537948527554
H        -0.82164578943032   -2.70019963246962    4.61443521906673
H         3.54038364568198   -1.35324969320401    3.92852274015914
H         2.69168627469969   -2.79670307511583    3.36996869459213
H         3.44709106066160   -1.70863999599242    2.20406058903676
H         3.05918027696858    0.52706812144804    0.93278075214660
H         2.43441079576963    2.06702683641886    1.52753417064771
H         3.55223580464442    1.11074025948809    2.51891019762259
H        -0.51742939237238    2.78342239268174    4.53235594821929
H        -1.09836313546506    5.98035758137648    1.75028538950234
H         0.18861602228699    2.14808671583400    0.33607921379652
C         2.80113869910403   -8.05193153383855    7.82785005978239
O         3.72447968204676   -7.69042079217545    6.82185648017313
C         3.25820867449864   -7.12981564642237    5.67550307044016
C         1.91730347017660   -6.89252599254243    5.38614028888201
C         1.56166096248029   -6.30179488607771    4.18706831885606
C         2.51919762395811   -5.94221845653834    3.24355857127380
C         2.13590120965554   -5.30565500729098    1.97543680443274
C         2.79177793194296   -5.61976245609772    0.78379648330492
C         2.42823546157102   -5.01075382729058   -0.40450675416892
C         1.40915856916656   -4.07642058994806   -0.43478594373520
C         0.75745792590208   -3.74307494605843    0.75230303700425
N        -0.26361348787403   -2.77726987200589    0.74585204551016
C        -1.27022095799846   -2.92621085768400   -0.05474521219540
C        -2.22243155902977   -1.85590862645725   -0.10952319294097
C        -3.36492188249836   -1.84920046730458   -0.91041635050175
C        -4.18909197562040   -0.73994181253479   -0.89068133402362
C        -3.84366278805013    0.33502848594709   -0.07789346111413
C        -2.69203489600279    0.26389685598746    0.68573572717298
N        -1.90027768012058   -0.80520347431603    0.68532240791342
C         1.11491003782727   -4.36067478272918    1.94473162054350
C         3.86084870452715   -6.19384385337956    3.53784402084616
C         4.22605870294938   -6.77137014393559    4.73250505856227
H         2.10303191228306   -8.81581611481772    7.47338119889661
H         3.39960874847472   -8.46027364331701    8.63994466562918
H         2.24516817945878   -7.18170940822025    8.18863948476642
H         1.14344405840002   -7.16759391088459    6.08456918247099
H         0.51441819231037   -6.14728942781882    3.97557904868335
H         3.57640132704143   -6.36006814921653    0.78735067032941
H         2.94061876515373   -5.26862767911976   -1.31862994440324
H         1.13984318230315   -3.57473372055262   -1.35090952022832
H        -1.38571027401708   -3.81502895006493   -0.66409227729934
H        -3.58093688141878   -2.70045605735926   -1.53565645467442
H        -5.07945592257679   -0.70510071014642   -1.49827811743162
H        -4.45747284317091    1.21963520076378   -0.03512297737027
H        -2.39512794296588    1.09117570937658    1.31307029636865
H         0.57393014279762   -4.11313566428800    2.84250575915233
H         4.62782785849613   -5.91000283802930    2.83356475719427
H         5.26229603696231   -6.95897622300361    4.96518202021700
Cl        0.75899233730881   -0.36952620170798   -0.60708524251994
