66
 energy: -102.731519102352 gnorm: 0.000335465363 xtb: 6.4.1 (afa7bdf)
Ir       -0.50390279342161   -0.69315576419754    1.50784164545908
C        -2.08198235511475    1.23762396695609    3.86335847003993
C        -0.84731470090437    0.58137327180056    3.35017980336908
C        -0.46337317444477   -0.75290381474722    3.73712865260731
C        -1.20911767254602   -1.61063052660307    4.69947374360605
C         0.88120648112160   -0.98281116396918    3.27872552554931
C         1.73864403809498   -2.12934508813189    3.68574720044154
C         1.28327578058525    0.15378805878760    2.52202203695027
C         2.64612924282423    0.40627516475251    1.97500895468584
C         0.20411206636353    1.13573798533937    2.56069640125720
C         0.38196201543404    2.55419437573813    2.09202613160137
C        -0.71313990923648    3.06811766527624    1.15039530008618
C        -0.35958107795687    4.47376599118040    0.67167236106612
C        -0.20849703312509    5.42078106486256    1.85983334868284
C         0.85779996227901    4.90540142241454    2.82305334872392
C         0.51992993939682    3.49560274703523    3.30045553167338
H        -2.94073656171959    0.57360380846255    3.79096853839648
H        -2.30146021008205    2.16475935818753    3.34672634811281
H        -1.93306960275676    1.46363823124498    4.92030892930477
H        -0.92591272264687   -2.65407520466072    4.59859009013238
H        -0.97104199017879   -1.29284895980285    5.71538411561445
H        -2.28289450107992   -1.51894564831513    4.56292657521459
H         1.15715663212808   -3.03829660093733    3.81365617000733
H         2.52797867378926   -2.31649484081781    2.96386544571860
H         2.20373544122221   -1.88779296538607    4.64230522577754
H         3.24511482563728   -0.49909428961345    1.98256471999550
H         2.59367549171958    0.78254175689432    0.95535081935779
H         3.14693339609186    1.15575245638387    2.58783887369484
H         1.32016171326373    2.59581421999195    1.53097243566448
H        -1.67561359915058    3.11247278314651    1.66015816817048
H        -0.79908754251968    2.39485748954993    0.29603547686175
H        -1.13863831643100    4.84145641017298    0.00110849830429
H         0.57531009897323    4.44558980750256    0.10759361360249
H        -1.16380962028727    5.50463356301598    2.38353730307167
H         0.06251218219173    6.41762544893215    1.50675320420060
H         0.93549867410498    5.57305351396300    3.68350054703944
H         1.82680380755267    4.90023158300700    2.31883662645065
H        -0.41336040647959    3.52056847027898    3.86269230286703
H         1.30507953636359    3.13137754595799    3.96534404819173
O         4.77857063354507   -5.80578271859313    0.77872102712625
N         3.67177177921054   -6.19392958967597    1.10326915443401
O         3.43232591687890   -7.32116639604806    1.49461751856130
C         2.58012388109244   -5.26501679396876    1.01821447677997
C         1.30679681718221   -5.66719579127614    1.41204477450062
C         0.25585522204905   -4.77862159571288    1.31669687014669
C         0.47985670775463   -3.48473302684874    0.83755995661708
N        -0.57900670489550   -2.57570705813736    0.73774279235975
C        -1.64728864129332   -2.89640849855809    0.07397661144404
C        -2.68305802242756   -1.91528825511981    0.00454337547676
C        -3.86652370047944   -2.06219720776961   -0.72635952059187
C        -4.77916863105835   -1.02945283819775   -0.75442851084634
C        -4.47279226155811    0.13500697845003   -0.04898169357864
Br       -5.67336546330514    1.60908469547528   -0.03263210800160
C        -3.28180543824996    0.22295226108372    0.65934959762329
N        -2.40965178766623   -0.77631003931496    0.69484846017749
C         1.76361587465735   -3.08485424242601    0.45798574791528
C         2.81181387464243   -3.97738702580770    0.53946138876186
H         1.16006295602528   -6.67038152895352    1.78121852917320
H        -0.73450193108602   -5.07236771672330    1.62754221266885
H        -1.73265156971626   -3.84275961695637   -0.44732712704746
H        -4.04986608189056   -2.97637507859971   -1.26785243610259
H        -5.70174387929964   -1.11098294817547   -1.30721370276652
H        -3.03353365430862    1.12234487902183    1.20186572931322
H         1.91059705058777   -2.08762099928092    0.07209867528945
H         3.80948722247794   -3.69995677938637    0.23611419890157
Cl        0.16238962208176   -0.02190036220732   -0.68248052991028
