77
 energy: -119.053714871466 gnorm: 0.000294794202 xtb: 6.4.1 (afa7bdf)
Ir       -0.34347470942766   -1.05401847305939    1.39509290197398
C        -2.30170499384577    0.57482096268329    3.69739948001961
C        -0.98178940412147    0.01699635092444    3.29295015812555
C        -0.52843882291196   -1.30695767936591    3.60701867483971
C        -1.29732851895739   -2.29902908039552    4.41413752317877
C         0.87078598422351   -1.38760486330689    3.26356053059312
C         1.83661950175782   -2.44518412096139    3.67837570176446
C         1.25093809130296   -0.13468828667261    2.69490674305498
C         2.63859621622447    0.27082313033972    2.34538581082342
C         0.10489596508006    0.73603822124036    2.69936569326265
C         0.19096455375849    2.20926819123292    2.48333635459344
H        -2.28973755237762    0.75190512933272    4.77350036394509
H        -3.11026437296467   -0.12013312130357    3.48405133983831
H        -2.50093694602688    1.51742024427050    3.19765712295229
H        -2.36097894131623   -2.23723972788932    4.20154234473018
H        -0.96177389102665   -3.31420933303551    4.22457055368206
H        -1.15199000605942   -2.08516838885638    5.47400626362976
H         1.34289412491521   -3.22821427344413    4.24362752193576
H         2.33511430623861   -2.89395792598840    2.82062381738241
H         2.60249134591033   -1.99407697860839    4.30880573840278
H         2.64251472768732    0.96520051496644    1.50910756733021
H         3.24632612762719   -0.59208356966885    2.08736051688378
H         3.08880968214352    0.77054106635440    3.20449452176136
H        -0.79077407379182    2.66488265895844    2.40777537807457
H         0.75283787275298    2.43927848628171    1.58187896836462
H         0.71387745303971    2.65748738149179    3.32938098460122
C         0.15928168938857    7.24423081893752   -0.56133761693027
O        -0.26442597027898    5.88630756216512   -0.48808789535875
C        -1.38444530335507    5.63663769814412    0.19420063091442
O        -2.03849932106363    6.49630038750768    0.74360536461082
C        -1.73510289731463    4.19331409675236    0.20131648213276
C        -2.89151579448415    3.79176704736713    0.87023760100361
C        -3.26898983009824    2.46409036975684    0.87154660810511
C        -2.48000701848685    1.50932023382449    0.22635929327565
C        -2.95660276499156    0.12816797184220    0.04979296237557
C        -4.24389371719834   -0.03399106062447   -0.47056581367561
C        -4.69080601956044   -1.28307178997774   -0.86491253460983
C        -3.81374328653603   -2.34857988674699   -0.76982751641583
C        -2.56417513106338   -2.13673558994695   -0.19462531392849
C        -1.58687003598170   -3.18038688995630   -0.06861274561909
N        -0.53461971516163   -2.94812288613903    0.63650889076645
C         0.49993753029195   -3.90436785738350    0.62771012209300
C         1.24508130114959   -4.07340310765905   -0.56307549682879
C         2.25296478923221   -4.98859090592773   -0.61482686042471
C         2.55868058404095   -5.80386172246731    0.50019639309212
C         3.58125609527571   -6.76107311502058    0.46391677246447
C         3.85399142527440   -7.55761725893924    1.55924844937427
O         4.86228607366511   -8.45334460022560    1.41444424968446
C         5.19123203695395   -9.30670380762883    2.49216832697456
C         3.08964737911164   -7.40204515036131    2.73560564102423
C         2.08656193226089   -6.47489028993127    2.79025185886350
C         1.79016387460450   -5.64963672460462    1.68683948609566
C         0.76592992091421   -4.68452390984371    1.72587773751093
N        -2.15484179853183   -0.92486719681309    0.26118316360012
C        -1.31597395016554    1.90987822177821   -0.42788098283603
C        -0.94980517781271    3.24267504755958   -0.44579760524714
H         0.40635088469774    7.61591736162133    0.43483154261928
H        -0.63276152307695    7.86576074056306   -0.98267205396858
H         1.03596201203429    7.24947062182985   -1.20285077196922
H        -3.48745831461654    4.54165413489760    1.36769649801322
H        -4.17474424684641    2.16477146129029    1.37712249064984
H        -4.86653840283479    0.83766273924124   -0.59222162353496
H        -5.68312689145142   -1.41292052404515   -1.26653355721718
H        -4.07845890455035   -3.33280957905587   -1.11921792033881
H        -1.72677102551240   -4.12394892975536   -0.58583035390176
H         1.01562092797118   -3.44505906305160   -1.40907761942572
H         2.82907334638066   -5.11028776389415   -1.51935900664684
H         4.17031788017043   -6.88860340259571   -0.43073765906310
H         5.52316412438975   -8.73779897326658    3.36542449041221
H         4.34881276979114   -9.94894683057273    2.76463041296548
H         6.01215578458448   -9.92380291556591    2.13180870878386
H         3.29228932932318   -8.01569313820221    3.59863563743160
H         1.50860018348050   -6.36740055158005    3.69582447213716
H         0.16248002048144   -4.59248764772461    2.61447227392539
H        -0.71466112706261    1.17988240873172   -0.94533133550251
H        -0.06068072603267    3.55294531919868   -0.97017354586186
Cl        0.91001127866828   -0.67443668903034   -0.59193730736757
