61
 energy: -94.930875773678 gnorm: 0.000284936336 xtb: 6.4.1 (afa7bdf)
Ir       -0.60706396441803   -0.62645070836796    1.21325242972776
C        -2.07426798142487    1.69065923557109    3.35241916665717
C        -0.88637397853938    0.91594810021452    2.89383624932698
C        -0.52255420744725   -0.38036939848158    3.41865751936893
C        -1.26070337845135   -1.09133866526091    4.50181048890577
C         0.81414391684938   -0.67966539188995    2.97477514218801
C         1.66583018212449   -1.78178655020209    3.50046338097168
C         1.20919174513252    0.34194114738346    2.06860499975739
C         2.55512786423741    0.53334803584588    1.45913751990362
C         0.15380951859712    1.34324788570668    2.03033582551197
C         0.30803607041762    2.67077373016696    1.36818211676714
H        -1.92757829147523    1.95978318300282    4.39883745952342
H        -2.98554269564618    1.10092065483269    3.28494764438607
H        -2.20610717439241    2.60210694548049    2.77880538606658
H        -2.33338339578470   -0.95341947217517    4.39886277283782
H        -1.03731404884750   -2.15435500945336    4.49975782162204
H        -0.95834839258455   -0.68425019026551    5.46748706706714
H         1.07230055469858   -2.65457532610250    3.75757926374463
H         2.42778439980106   -2.07510341677235    2.78390456630505
H         2.16455636008634   -1.43378923280338    4.40579439669560
H         2.46378734416172    0.85153384797969    0.42292778780733
H         3.14015505718457   -0.38032475867733    1.49861580941457
H         3.08910971077415    1.31250018106572    2.00390821792063
H        -0.59576809267709    3.26765016155703    1.44788958818322
H         0.55807500821943    2.54730333874441    0.31562778437642
H         1.12533271444940    3.21412802770526    1.84245590313483
C         0.78047532083916   -7.12684377605263    2.80242768239908
O         1.90411766225257   -6.55535594666606    2.15590678212808
C         1.77011553012094   -5.36502065061954    1.54345432979816
C         0.60952183926129   -4.60021211251908    1.49863415291511
C         0.59754771911870   -3.36618166291283    0.84300912896674
N        -0.57395026248461   -2.60049567988873    0.78978533523999
C        -1.70938124222387   -3.15650241992580    0.50024886864012
C        -2.84098826691913   -2.29182483311277    0.37888622849794
C        -4.12746999115732   -2.75169207219269    0.03205621509042
C        -5.13614122347822   -1.84542869987424   -0.12916657528793
C        -4.85126015769746   -0.46658803180823   -0.02464257264047
C        -5.82465330971370    0.52383421556815   -0.26036498357291
C        -5.49365356174279    1.85173665541107   -0.22221805246862
C        -4.16983906730769    2.24000707706186    0.03839059830253
C        -3.20646623100136    1.30418801501685    0.30353406192011
C        -3.52076246335262   -0.06775916363520    0.30170185292659
N        -2.56500934274460   -0.99175699763200    0.57145222181287
C         1.74568929893776   -2.87775053224077    0.22686933730093
C         2.90177952133820   -3.63855832010637    0.24393694390910
C         2.90779793145088   -4.85441563369336    0.89364893045532
F         4.04283104275822   -5.58328082502243    0.91541215002957
H         0.43497262002689   -6.49576388742799    3.62491810564024
H        -0.03275910320106   -7.30602695268622    2.09491569514124
H         1.13114880533079   -8.07734398164568    3.19847157804141
H        -0.28527285267368   -4.94031111663239    1.99421774582815
H        -1.78911671306705   -4.21303770177099    0.27421800071093
H        -4.28994246355574   -3.80977638854632   -0.09113356363055
H        -6.14102219401060   -2.16155286664999   -0.36288386576569
H        -6.83149283987377    0.21154417169254   -0.49144354605909
H        -6.24153099101610    2.60519479612747   -0.41320833437097
H        -3.91408345148276    3.28796285378735    0.02017122265565
H        -2.17951692806103    1.59088899868854    0.46175731307948
H         1.71102734036214   -1.93406041886634   -0.29259361931867
H         3.80164758837283   -3.29982191857454   -0.24343336533888
Cl       -0.12000840844374   -0.09632454744283   -1.06592431115118
