81
 energy: -116.414703478208 gnorm: 0.000458618037 xtb: 6.4.1 (afa7bdf)
Ir       -0.52039435087862   -0.38936699056464    1.28368878094505
C        -2.15305089589570    1.34783107099170    3.75375351150761
C        -0.96351187727406    0.57746152004955    3.30161127358804
C        -0.82154589302658   -0.84763048975799    3.45724882685216
C        -1.82531509569869   -1.73715317755574    4.11015360205450
C         0.53472355122862   -1.18723032076005    3.16007579782165
C         1.20873914805583   -2.46774206026949    3.50474072690051
C         1.18664113696117   -0.01898240357358    2.65929646925405
C         2.64717702594004    0.08513950672255    2.38217396890706
C         0.25891935078677    1.09562451123281    2.79101417341028
C         0.65006683190768    2.51154094296130    2.71825924022311
C         0.44645427461106    3.32760702022260    3.83041310090650
C         0.86208898694828    4.64457211416419    3.78466699591826
F         0.66446452947220    5.42239517530964    4.87027653133450
C         1.47050178198677    5.19719525999710    2.67214972818192
C         1.65595185911377    4.36283913270997    1.58316431068524
F         2.23843031698076    4.86952171313887    0.47700465665065
C         1.26497940500511    3.03798105349338    1.58265265995382
H        -2.13475302707436    2.36324585567013    3.37249554322401
H        -2.15261538084784    1.38492808850810    4.84412696005188
H        -3.07620725932973    0.86247837424112    3.44619594864909
H        -1.67325661343796   -2.77488232326919    3.82691609054880
H        -1.72662324487392   -1.66313370727598    5.19362997015460
H        -2.83751519707856   -1.44519887422043    3.84331009559209
H         1.54350665183734   -2.40255379332299    4.54182801019663
H         0.53375552609213   -3.31676890632319    3.43230163920965
H         2.08671143417122   -2.63473064707722    2.88693072750532
H         2.95543136572683   -0.64391623100363    1.63562708782951
H         2.90634456438753    1.07630349196673    2.02276484323818
H         3.20407626628898   -0.11168899742056    3.29862664364124
H        -0.00267790289219    2.94577608255605    4.73219602874023
H         1.78765318420365    6.22642001100046    2.65538926905333
H         1.40307610439422    2.43769528266817    0.69648576043800
C        -0.02068832109095   -2.45664066774660   -2.84021449418609
C         1.20468351797980   -3.14190253208335   -2.24206075378534
C         1.48743007631174   -2.76577526790684   -0.78281218734271
C         2.78186030393708   -3.43307055603618   -0.29149997340403
C         4.03552272307716   -2.90105194545446   -0.97961519270688
C         0.32137831732664   -3.16939885808783    0.14549540066541
N        -0.70727995312629   -2.16617636691004    0.30102589052382
C        -1.90701265745933   -2.45053337177207   -0.05116231902977
C        -2.96202357556577   -1.48938401440433    0.12967891448205
C        -4.28444187741856   -1.85968326909486   -0.02357370174763
C        -5.26695400267257   -0.92108887725492    0.28981432310689
C        -4.88411969735330    0.34913136737485    0.62049288658319
C        -3.50986166311950    0.72373486329892    0.62454058572592
N        -3.17159769232923    2.01443795479830    0.76301541350270
C        -4.16748243748954    3.01802044064050    1.12579097788537
C        -3.49176506814828    4.34447639030355    1.45634135297053
C        -2.78216468831426    4.91595667269033    0.22545945938314
C        -2.23319310236018    3.77325179692026   -0.63528169788019
C        -1.93466226031723    2.54833719783473    0.22568327289563
N        -2.56261626412458   -0.24071971261016    0.49474088942016
H        -0.01741327627751   -1.39770361499666   -2.59722226297097
H        -0.00796001984264   -2.55730867845805   -3.92324423018156
H        -0.94615689431208   -2.89333067050340   -2.47735340906132
H         2.07284008920214   -2.85300738692128   -2.83464695721962
H         1.09842742492580   -4.22702266455375   -2.32462036652893
H         1.61644331640427   -1.68327318418945   -0.72297737189239
H         2.88957254378054   -3.25474475803203    0.78054524420220
H         2.71656397482624   -4.51304553605545   -0.44086156835673
H         4.06699112826675   -1.81480510985419   -0.92918550860008
H         4.07526393512510   -3.19550715211696   -2.02446588243965
H         4.92411958895472   -3.29402487541889   -0.49053117374841
H        -0.12506131606967   -4.09831479238020   -0.22339365496105
H         0.72989592839527   -3.35970150491388    1.13931887820342
H        -2.16055909698418   -3.42082798209158   -0.46816495502596
H        -4.53815611844736   -2.85647020495332   -0.34005036155524
H        -6.31141410872440   -1.18657279130178    0.25321716492414
H        -5.63402434720101    1.08838193510960    0.83552008461984
H        -4.87297447546671    3.17933417488629    0.30240755903128
H        -4.71878776954998    2.67032811505202    2.00245417860944
H        -2.77503333721574    4.19848164558258    2.26531914040397
H        -4.24703660891905    5.04292245031857    1.81620962841692
H        -3.47396335243614    5.51883541365575   -0.36342904953808
H        -1.97221317059788    5.57142100477530    0.54743632392233
H        -2.95482377300215    3.49470372103999   -1.40481348227111
H        -1.31810035865736    4.07905873430127   -1.14137220256133
H        -1.24863679856088    2.82965857963249    1.02730842881923
H        -1.46478865585702    1.78391020444186   -0.38848250285512
Cl        0.49599831260472    0.48468539825357   -0.68274271161306
