65
 energy: -115.166160664231 gnorm: 0.000977188917 xtb: 6.4.1 (afa7bdf)
Ir       -0.64462833170020   -1.05057428505553    1.50144098636052
C        -2.11016754401719    0.62195432863706    4.17427118361303
C        -0.89508358079845    0.09376945587966    3.50170776303185
C        -0.36372154893078   -1.22346369309950    3.71849067674417
C        -0.91143197373553   -2.21823032424486    4.68385887290046
C         0.92410970217866   -1.29084684918174    3.08629702669160
C         1.96172977233151   -2.32886363281072    3.33120256552166
C         1.13202622886904   -0.06656073360893    2.37500426990922
C         2.41333483430394    0.33475713994001    1.73315990652596
C        -0.00253209161630    0.80039725955090    2.64234783900061
C        -0.03515851923010    2.23974536129498    2.34235280392280
C        -0.16737095978811    3.15114149980806    3.38841644302382
C        -0.15083058691292    4.50378111634668    3.10646381775146
F        -0.27753692570663    5.37786720191896    4.12668519690500
C        -0.00574845920036    4.99712677804612    1.82274633363532
C         0.12440027571438    4.06622117196805    0.80685983363047
F         0.26626754329235    4.51100253943414   -0.45898088552763
C         0.11502508446038    2.70469081037198    1.03796805318590
H        -2.37148247426068    1.60762882137973    3.80340702291317
H        -1.91530348844389    0.68514298810770    5.24554335840423
H        -2.95851502901905   -0.04569840538078    4.03968886310620
H        -0.60162361719444   -3.22730680450572    4.42658779875458
H        -0.53262265564842   -1.99292566781141    5.68134007061753
H        -1.99608489447112   -2.17623948376472    4.71814407440325
H         2.51856089548796   -2.04463959069363    4.22509828457454
H         1.52205414767478   -3.30653656342571    3.50544796106166
H         2.66145229540764   -2.39385841766542    2.50396672358454
H         2.75191048138869   -0.42127610453602    1.02872682613582
H         2.30812323505130    1.27865027825573    1.20777693504003
H         3.17787823333556    0.44218479811054    2.50280172573731
H        -0.25927565630061    2.82515987464895    4.41117736703249
H         0.00368810964923    6.05522976855101    1.62187835828592
H         0.19300988533396    2.01835217595280    0.20937081693839
C        -6.91655901020564    0.35025116127246   -0.72050008146215
O        -5.61594273903461    0.50064860029438   -0.16680313942458
C        -4.83594729864410   -0.56066682845734   -0.02133091241771
C        -5.14328309038002   -1.87989128061400   -0.36959399585897
C        -4.18862245539188   -2.85676581224874   -0.17797556127221
C        -2.95354801172023   -2.52435860311931    0.37692333577457
C        -1.86055107183432   -3.43756434913968    0.48136262713068
N        -0.71955146187647   -2.97152241579085    0.87354511297208
C         0.39929047149319   -3.82115361542345    0.90056353430303
C         1.57032226842690   -3.42699064546288    0.25192704295337
C         2.66985321306579   -4.26675378628708    0.24650323477416
C         2.62609761325026   -5.48705306897580    0.90133282527296
C         1.46138148429322   -5.87652907980452    1.55869323620703
C         1.36426406084619   -7.17698647361186    2.27746815590385
O         0.35692118790705   -7.56091394827977    2.82803030216492
O         2.49295753363043   -7.87288239526505    2.25791733105709
C         0.34356465505025   -5.04882353757489    1.55048813850441
N        -2.66634175472509   -1.25376291479313    0.77275447283265
C        -3.56676774661608   -0.31519305460896    0.55099638397722
Br       -3.18327865448600    1.47601749816270    0.98268646976584
H        -7.53237117708024   -0.30084565502671   -0.09685262148203
H        -6.86461657441643   -0.03893463814022   -1.73932800605934
H        -7.33873893442869    1.35235156008096   -0.73244381871513
H        -6.09935519137366   -2.12974046367201   -0.79977971841173
H        -4.38261310535306   -3.87690219464730   -0.46713849096567
H        -1.97281990252203   -4.46827766931267    0.16457705267725
H         1.58520405407517   -2.47956695613190   -0.26552400579473
H         3.56784489949614   -3.96772552225546   -0.27073038917537
H         3.48370341368815   -6.13965707136682    0.90783244136226
H         2.41189720697505   -8.71733709473969    2.73618016128099
H        -0.54712827690492   -5.36671667191677    2.07138942565676
Cl       -0.21999199277795   -0.41186488557625   -0.75338241695580
