72
 energy: -110.966776289055 gnorm: 0.000464381218 xtb: 6.4.1 (afa7bdf)
Ir       -0.72680722446800   -0.68861237863847    1.68841268420402
C        -2.05881358954458    1.59595582330992    4.08454353606080
C        -0.97663300279673    0.74580461199272    3.51819603832386
C        -0.81188918690233   -0.64247307759036    3.91475866166472
C        -1.71921286542590   -1.36332292135321    4.85276498878485
C         0.49677253359994   -1.06328274817965    3.53284716463874
C         1.18914983381712   -2.28765655717626    4.01977823371903
C         1.06916989646591   -0.01318072799427    2.73814289159929
C         2.48360427035804    0.04241617507417    2.26825630953353
C         0.16771821351210    1.13378611503685    2.78219356429426
C         0.59223176021858    2.50650621768984    2.34206339945256
C        -0.37867303309412    3.22688880937389    1.40234981015451
C         0.21869273174307    4.56186605119089    0.96732530186605
C         0.51756593928081    5.43728081452166    2.18167986862988
C         1.46388721918903    4.71806316198872    3.13901477845242
C         0.87160362603293    3.38146279944028    3.57631791948561
H        -3.01717531682791    1.08439841288666    4.06733090511603
H        -2.15951330832646    2.53963172719057    3.56251305663679
H        -1.81152976452623    1.79695260256989    5.12811764925270
H        -1.58065831894392   -2.43844390281559    4.78565843451813
H        -1.49521109236355   -1.05408985552877    5.87418207487953
H        -2.76060379500269   -1.12742634064045    4.65192151886428
H         0.49939518064081   -3.11751998108507    4.14241643442601
H         1.99023864114206   -2.59092156334781    3.35283963714784
H         1.62416901321005   -2.06350587508346    4.99440744451253
H         2.92572859250289   -0.94845274399473    2.23363522662455
H         2.55116040034554    0.48639196800131    1.27794403584049
H         3.06726863270589    0.65571846258770    2.95510041771104
H         1.53355695828959    2.39819135002275    1.79519675381440
H        -1.33252092520658    3.41305189861772    1.89430551641736
H        -0.56409775347795    2.60073550565195    0.52934124052491
H        -0.47864764734264    5.07489995370350    0.30241575502439
H         1.14138041136768    4.38773321800566    0.40845766080990
H        -0.41583945133079    5.67062116312971    2.69897230724959
H         0.96318517964396    6.38038069470407    1.85884746348246
H         1.64956950795180    5.34062797455464    4.01649521090453
H         2.42192256637272    4.55063679393459    2.64153460821484
H        -0.05579063543794    3.56051147921800    4.11935545344388
H         1.56435758614190    2.86824632057916    4.24619017911388
C         2.99951491460907   -7.31863114777497    2.13810699321485
O         1.83201342989965   -6.51546073338543    2.11471334949338
C         1.88372280544459   -5.30037691448667    1.54260751485322
C         3.01965753387709   -4.73725288575869    0.96182672934823
C         2.92311928794348   -3.47015476903216    0.41194796553026
F         4.02913908153991   -2.93574741079370   -0.14758733231950
C         1.76151142057163   -2.72637968964002    0.42054291599524
C         0.63002222853417   -3.30273821355797    0.99705959827336
N        -0.57448021815360   -2.58102604248818    0.99071347055613
C        -1.64853611622536   -3.16159768011979    0.56411473794408
C        -2.84579938679970   -2.39021777741656    0.47209022596500
C        -4.02177264321622   -2.87344800131138   -0.10092825091830
C        -5.09894846784273   -2.03100572501013   -0.28045728936150
C        -4.96850575500425   -0.68952913590985    0.08868383211791
O        -5.88380705502632    0.26195427066320   -0.04413668642514
C        -7.15429373116269   -0.05539457964576   -0.59555889130132
C        -3.74423218866869   -0.28955695713263    0.67102336391667
Br       -3.59674162217463    1.52453816867866    1.11220084791363
N        -2.73113491730157   -1.10243278564490    0.89566593034962
C         0.68791603025954   -4.57453079993527    1.54949372492681
H         3.80081982686864   -6.83458631556922    2.70177486487717
H         2.70673773278997   -8.23891116943162    2.63900505492735
H         3.34283028602644   -7.54791322543593    1.12627448592214
H         3.96522205841974   -5.25087968434491    0.92111306018268
H         1.71508321622720   -1.75170834934425   -0.03481445968903
H        -1.63223752295155   -4.18421688608635    0.20446207253230
H        -4.07530264233995   -3.90370331025420   -0.41238367790652
H        -6.01223870288099   -2.39839557027960   -0.71878327863068
H        -7.05597025734808   -0.42070023444414   -1.61991087516211
H        -7.70884929408868    0.88016874051691   -0.59220705938212
H        -7.67275007065678   -0.79295744701318    0.02045047320574
H        -0.17580123191300   -5.02015556852846    2.01493602254119
Cl       -0.31779181284471    0.06162139844711   -0.53791556887557
