55
 energy: -88.904516004333 gnorm: 0.000548508382 xtb: 6.4.1 (afa7bdf)
Ir       -0.59174182093228   -1.29315850528754    1.66513953334493
C        -1.66502497846669    1.73275061635010    2.69112301749143
C        -0.74967093468080    0.56297788969385    2.84722770608547
C        -0.91110071221548   -0.53831315085167    3.76186838487900
C        -2.04279464568298   -0.75724751602680    4.70459740824111
C         0.30211050470422   -1.29873499758030    3.76255086806768
C         0.61936233163073   -2.36345987842461    4.75631290225311
C         1.21943040884355   -0.67342312828051    2.84042310841255
C         2.66784752290387   -0.99487515514188    2.68636464828135
C         0.58836606712938    0.50589736229711    2.32655141106076
C         1.24331203990437    1.56486863331071    1.51763646876211
H        -1.22427795628573    2.60044111412843    3.18217780655345
H        -2.63359639090709    1.54491325043099    3.14450771906125
H        -1.80344837436968    1.98005794925851    1.64046444277784
H        -2.96574394935573   -0.31598424334826    4.34088056042315
H        -2.20364287864392   -1.81641804764752    4.88595705795849
H        -1.79775311340283   -0.28671025474485    5.65785741715471
H        -0.12893815321447   -3.15306093499062    4.75427724248197
H         1.60004211833064   -2.79406364136832    4.58077961961320
H         0.61901639027931   -1.91529470928446    5.75075603617256
H         3.01398791841011   -0.74166360745860    1.68794842826414
H         2.86480119030941   -2.04700336757636    2.86591976642804
H         3.24080985063786   -0.40712427964409    3.40418772694574
H         0.51640289956907    2.10594918578869    0.91858101306145
H         1.99826312160741    1.14801371464546    0.85684402869603
H         1.73018662120015    2.27006673887334    2.19302356571155
C         4.95082120633963   -5.53426763670818    2.65527358511175
O         3.65796250287638   -4.95629110426420    2.71427975960610
C         3.02222031074767   -4.64562575335753    1.56634973370037
C         3.54060178275129   -4.82377801232981    0.28326730565586
C         2.78963547765674   -4.46127859808446   -0.82222475991870
C         1.52724019792610   -3.92986182286008   -0.66009451383352
F         0.80780731911960   -3.58792487380885   -1.75254724911633
C         0.99005666731675   -3.72009435140142    0.61562908495949
N        -0.27576771865987   -3.14564251900698    0.79547502663505
C        -1.28597359739576   -3.62586188666372    0.14003242007815
C        -2.53756044475828   -2.94634107983512    0.26459815935668
C        -3.70566707538976   -3.32663827036698   -0.40398006472294
C        -4.85072470867925   -2.57560539175178   -0.24823596921777
C        -4.78804401434757   -1.45315426545687    0.57760178270089
Br       -6.31968601033364   -0.35988225594444    0.84952808427065
C        -3.60078738740480   -1.12831699755003    1.21723773236670
N        -2.50117582498567   -1.85691951219307    1.07273106696354
C         1.74963041990950   -4.09057143651378    1.71556442297935
H         5.66514818604387   -4.86037287968232    2.17543723961090
H         4.93394673720105   -6.49213155160614    2.12985341007450
H         5.24132343754778   -5.69392954479784    3.69154906403576
H         4.52004582780097   -5.24508554208040    0.13149806448438
H         3.17640859246667   -4.59498622793969   -1.81973288604065
H        -1.19862520532408   -4.50262255514230   -0.49147273612983
H        -3.69473638217897   -4.19391733165649   -1.04430419170263
H        -5.76747951661200   -2.83860121615358   -0.75171171295020
H        -3.54422712828266   -0.25720607068671    1.85180796679326
H         1.33603654871744   -3.98760658958319    2.70369715560034
Cl       -0.45916527732969   -0.48303875982766   -0.56716186953005
