81
 energy: -137.024004603875 gnorm: 0.000592276382 xtb: 6.4.1 (afa7bdf)
Ir       -0.36037558584606   -0.20154421253295    1.61793616037012
C        -1.65665016593165    1.98065885248440    3.92603844696318
C        -0.48028802031289    1.23683564564644    3.39337826708180
C        -0.06685990326668   -0.07856470010566    3.82612665392515
C         1.20877070198950   -0.35450527870108    3.23462167127027
C         2.10952799250324   -1.47309213899169    3.62172483109306
C         1.51927659368541    0.70884637800608    2.32984930348032
C         0.48552405070080    1.73099010984232    2.47782044095994
C         0.58301533899033    3.12005612028504    2.00699770838063
C         0.53863054075004    4.14701442990989    2.95160330181896
C         0.66193105945564    5.46430084920245    2.56096963587870
C         0.82829258338476    5.79976293600646    1.21807908311147
C         0.94383207640644    7.20653159909430    0.80620556977929
C         1.87538773772849    7.59312267162217   -0.15512890877571
C         1.98518173392774    8.91824428974268   -0.53511222464578
C         1.16106842689199    9.87664404068616    0.03228144905953
C         0.22725690360904    9.50216178421839    0.98469258767073
C         0.12141277760170    8.17896745285021    1.37182052525180
C         0.87755906167644    4.77067416722466    0.27930277408204
C         0.75965351167278    3.45015548383556    0.66560905776926
C         2.83000715107505    0.90760967880972    1.64909350591381
C        -0.70539126166347   -0.88582993419326    4.90168180404956
H        -1.43027436204314    2.33171196691759    4.93347570160325
H        -2.53441196940045    1.34123063145788    3.99553585079318
H        -1.88293675856987    2.84545503968293    3.30701090810712
H         2.70998082361862   -1.15103928733390    4.47330712586911
H         2.78357891080056   -1.74125457211246    2.81327780604780
H         1.53603942017249   -2.34537832424122    3.92157431141685
H         0.43756049267094    3.90841505278284    3.99902355989501
H         0.64695258398300    6.24501273817902    3.30666846306280
H         2.53130739698077    6.85376003905877   -0.59112877892427
H         2.71621616345982    9.20620819345835   -1.27685105146818
H         1.24585465791764   10.91109662243518   -0.26645010978650
H        -0.42161062027270   10.24515991122453    1.42568094176142
H        -0.62042996810771    7.89228818030783    2.10313628174148
H         0.98754890102900    5.01000262015585   -0.76786518554064
H         0.76489722663886    2.67127005681083   -0.08039947665537
H         3.21347475296076   -0.03131586425195    1.25842630277513
H         2.73968469614034    1.62283553073062    0.83718148591910
H         3.54840360736984    1.29677170427174    2.37104231572417
H        -1.69716127157846   -0.51325020789888    5.13694306185242
H        -0.78514410547710   -1.92799422309924    4.59995299364521
H        -0.09226446512324   -0.83863530450444    5.80143852420547
C        -1.03793979652623   -6.29802475976148    3.76573174340079
O        -0.09723143136981   -5.77921594678424    2.82421991663356
C        -0.10115535719978   -4.47114212315943    2.61215848579799
O        -0.85924230404927   -3.69612704237279    3.15518536783314
C         0.95150479850037   -4.05385313077140    1.64444359870377
C         2.12210966783210   -4.79669871485381    1.54105450562273
C         3.16773763641623   -4.36746832816067    0.72335948430719
O         4.32888027682905   -5.01433811106773    0.55570948129369
C         4.54641738109701   -6.24695613876546    1.22201359903673
C         3.02747444723663   -3.15687495590522    0.02527449313145
C         1.87774777898193   -2.41236872471152    0.13213550726685
C         0.81679156057736   -2.85357837206509    0.92897475754910
N        -0.35673783830063   -2.09464886996026    0.97072274914874
C        -1.48142315532492   -2.59748661245551    0.56949717586987
C        -2.62874445551387   -1.74629955345792    0.62986938922073
C        -3.89341912922659   -2.08124227828095    0.13630783732348
C        -4.90994149721135   -1.15105414503191    0.19868787589947
C        -4.62235524616324    0.10165453885269    0.74662431878949
C        -5.66868530122981    1.18211736488957    0.81634025235417
F        -5.59309694873186    1.88290762900293    1.95909451334345
F        -5.53680891651760    2.07541505344025   -0.18101734783807
F        -6.91479264862008    0.70161993443902    0.73737822726678
C        -3.34538917399133    0.37172223891660    1.21699680429308
N        -2.37557513939530   -0.53112609947988    1.17895693749446
H        -1.12898464521180   -7.35873232206254    3.54901072657893
H        -0.66523636568928   -6.14821863906245    4.78006579474086
H        -1.99866981946384   -5.79255022952309    3.65859633407956
H         2.20203307387121   -5.70231039267628    2.11867922391437
H         3.80907144190326   -6.99538282169390    0.92164351881937
H         4.52707489911956   -6.11711359128681    2.30697306502470
H         5.53834312666809   -6.56989610210437    0.91313030073392
H         3.84241821853189   -2.83118999430526   -0.60055722267200
H         1.75782249654175   -1.49421486788391   -0.42245871099050
H        -1.54671031148823   -3.60145567805513    0.16702460230877
H        -4.05986390807848   -3.05506167243719   -0.29427799151331
H        -5.90015997297829   -1.37526359154974   -0.16673961344210
H        -3.10643218944913    1.34048284410404    1.63276018085424
Cl       -0.27630067052289    0.39916047700203   -0.69229055868080
