87
 energy: -138.673502743945 gnorm: 0.000381404945 xtb: 6.4.1 (afa7bdf)
Ir       -0.86205090291255   -0.74035525606437    1.52156138460099
C        -2.16362949221611    1.22422278798007    3.99366789453734
C        -1.03033982289840    0.40320131401079    3.48308482231345
C        -0.88555694657137   -1.01239531482140    3.72669036075282
C         0.41632063265381   -1.39975300624945    3.27418098683750
C         1.12040160940224   -2.67573005608014    3.57004098098804
C         1.01760724985270   -0.27485958420543    2.63217475102942
C         0.13314103610023    0.86297230274952    2.80240586454497
C         0.52233846445843    2.25886694362271    2.56307126375324
C         0.45881392650466    3.17676420810571    3.61100006953006
C         0.88382889186635    4.47705029357074    3.42857508577762
C         1.38633589266737    4.90061099704126    2.19900955693327
C         1.85276790376365    6.28263159666933    2.01478178223831
C         3.01360299556716    6.54730734692781    1.29064161511536
C         3.45950446089519    7.84587089472067    1.12621599000591
C         2.75065283851640    8.90132109463398    1.67683699339186
C         1.59363263764136    8.64977526671430    2.39620047149132
C         1.14963164646875    7.35149196029265    2.56716038900883
C         1.44206010092594    3.98046119193074    1.15274375016402
C         1.01719843374307    2.67856676839737    1.32908859549878
C         2.43097814011637   -0.22059320849806    2.16880026222823
C        -1.79694820791166   -1.81589935666498    4.59339260926431
H        -2.09825529940075    1.27903900397183    5.08094310669792
H        -3.12050865992991    0.76919783026894    3.74610508381620
H        -2.12574216593753    2.23144496776797    3.59083989923439
H         1.70573103735449   -2.53700462091996    4.48042772937050
H         1.80834635370587   -2.94204109003709    2.77156767115037
H         0.43026373710594   -3.49647408163366    3.74061267316945
H         0.10783593154600    2.86083709495076    4.58105855202623
H         0.85321939843357    5.16850872604498    4.25700058574244
H         3.58243551755171    5.72916460002330    0.87298152197631
H         4.36521375636013    8.03639751329620    0.56853980458455
H         3.09943908034435    9.91517592761627    1.54630157246723
H         1.03633691790879    9.47007101756419    2.82504501588549
H         0.23933690575828    7.16561293506258    3.11793577961443
H         1.80625812277629    4.29407781406554    0.18585205725421
H         1.03756843709631    1.98906174544385    0.49882217518949
H         2.62245711134106   -0.94860662711281    1.38261246850184
H         2.67579513108091    0.76716914323250    1.78976817210752
H         3.09310709939097   -0.45176214018464    3.00349464078138
H        -2.83904262714851   -1.59831239775117    4.37450849874754
H        -1.62024541193588   -2.88065903228350    4.47362594818056
H        -1.61417741765179   -1.56030293745203    5.63784197482632
O        -1.14337943432095   -5.15360685674819    2.04626466662700
C        -0.10483136995912   -4.76350545175302    1.29369817315228
C         0.97398872229407   -5.64209247530508    1.18630584609907
C         2.09963629360742   -5.30807853992973    0.46472259878332
C         2.17082963778804   -4.06194757396132   -0.15135914200221
C         3.37970394613248   -3.65013502200900   -0.93774310276156
F         3.84129414812312   -2.44044725027665   -0.55899384686513
F         3.12917317043524   -3.54957034593833   -2.25937994223452
F         4.41148662688827   -4.49831577945285   -0.81527990298696
C         1.11594651393309   -3.16853016986849   -0.05731258324871
C        -0.03188458663899   -3.51155453521684    0.64756270694648
N        -1.08705349766656   -2.58667966329761    0.73563968424338
C        -2.28775149882942   -2.93589583534321    0.40938104406096
C        -3.35359209661094   -1.98698702842578    0.55268917069238
C        -4.66885677695440   -2.40273207781667    0.44870830194147
C        -5.66397115326727   -1.47566649592447    0.76278492720819
C        -5.30338181403286   -0.17124413286301    0.93917554488159
C        -3.94404383232929    0.25007637822171    0.76646843804099
N        -3.70197783432268    1.54705056483212    0.57160644978068
C        -4.79521191004545    2.46433180667986    0.25541755082925
C        -4.31591034447073    3.57470293795686   -0.67603363900408
C        -3.25079105853606    4.44238568196817   -0.00242380466976
C        -2.41840333226369    3.58053525566613    0.95134501709187
C        -2.38144078313184    2.13376865368052    0.47163280002573
N        -2.97150981669081   -0.69978340680836    0.79747427671838
H        -1.83782918831060   -4.48030690149932    2.10986738672307
H         0.89940478607062   -6.59393806604640    1.68590626375807
H         2.92203504793975   -6.00060473751870    0.38609042135506
H         1.16050769152001   -2.20455788833253   -0.54175246184688
H        -2.50421208955682   -3.91380211037643   -0.01096238654231
H        -4.90258312535924   -3.42471208406954    0.20657437660132
H        -6.69207745753259   -1.78396140382261    0.86308743936533
H        -6.04145368851407    0.55402147836377    1.23294090256628
H        -5.19600206971669    2.90374955497262    1.17498276008388
H        -5.58883896239091    1.91706178581019   -0.25526498888400
H        -3.91572615391405    3.12381369070208   -1.58459007210362
H        -5.17465184092304    4.18098696020388   -0.96425644016378
H        -2.61366121801011    4.89142587663235   -0.76410360342682
H        -3.71876010723878    5.25588671922122    0.55227990433476
H        -2.85316819872832    3.61116584572426    1.95126165161784
H        -1.39993110651929    3.95945700123193    1.02129864312547
H        -2.02135779672971    2.08683603724403   -0.56041316311587
H        -1.69032959313861    1.55094503777066    1.07811563099356
Cl       -0.19174529242235   -0.10069001093295   -0.68503990912380
