71
 energy: -99.384122946174 gnorm: 0.000396608207 xtb: 6.4.1 (afa7bdf)
Ir       -0.55372139971994   -0.86234026705617    1.91419354742131
C        -2.47953990395687    0.96224720117883    4.10601916856642
C        -1.17792548036968    0.32922054551730    3.74766512705522
C        -0.84746378253084   -1.02303648105915    4.12435663259229
C        -1.71890733045255   -1.92060229093314    4.93593035250807
C         0.55293926720326   -1.22648156382566    3.86855581681195
C         1.36481408286105   -2.36638436750395    4.38108406152678
C         1.05115991860651   -0.05752160175623    3.22736433178934
C         2.47988153800125    0.22515184665056    2.90463989266264
C        -0.02809809678015    0.92014838957616    3.15176781172723
C         0.21412647519724    2.35829802317367    2.77923973432437
C        -0.74686497975212    2.93143000273799    1.73230237853379
C        -0.31860903379953    4.35004551859459    1.36578625461797
C        -0.30866752097885    5.24183883126563    2.60528559986934
C         0.61717296822105    4.66597161374293    3.67383194612334
C         0.20584494473894    3.24167714978502    4.03757308397240
H        -3.31586190142151    0.31682730121856    3.84496878726098
H        -2.60855803221792    1.92902616125638    3.63315976059512
H        -2.50297583905873    1.10697472460982    5.18689583874806
H        -1.47686800144301   -2.96596769561300    4.76711277356944
H        -1.56556051473012   -1.70507712636835    5.99402388731640
H        -2.76886212837227   -1.76413926616132    4.70747084577681
H         1.76072594059538   -2.09091517302571    5.35974318930856
H         0.76034065986914   -3.25983096998726    4.50877023960234
H         2.20772421225992   -2.58575486516581    3.73197025906653
H         3.08642357111516   -0.67280520132413    2.97622449289624
H         2.57756613070464    0.63062661786067    1.89933089322863
H         2.87128005610962    0.96105672223476    3.60694514917000
H         1.21573155013346    2.41320503528091    2.34290126188140
H        -1.76450099510896    2.97156978810754    2.12209984094035
H        -0.73054443681677    2.29567888116222    0.84551135959111
H        -0.99962979067852    4.76171172522082    0.61786146234705
H         0.68001076088732    4.32784392736726    0.92399517473587
H        -1.32204741767271    5.32102186707389    3.00642658573158
H         0.01935340307604    6.24767810826534    2.33584724637944
H         0.58949722047120    5.29438753019622    4.56638240879542
H         1.64356799320109    4.66654210849552    3.29965131342985
H        -0.79142072401293    3.25530961699599    4.47804617211561
H         0.89523141035072    2.83550170024010    4.78011411095893
C         4.63896702539996   -2.36582174454991   -0.03462451631816
C         4.37553095604379   -3.54071205093437    0.50651230729081
C         3.03123108689507   -4.05789669606160    0.92524480447753
C         1.87923868487713   -3.08967983584324    0.67700868866752
C         0.55397535367110   -3.66501387587713    1.19266820672989
N        -0.50974931745006   -2.70730511260836    1.02732219567929
C        -1.42626994506463   -2.92840267946372    0.14998832682092
C        -2.43623776869980   -1.92647934484145   -0.02146669175721
C        -3.45863874725525   -1.99059174325012   -0.97266630322564
C        -4.33689264298537   -0.93815165182738   -1.07529471869487
Br       -5.75435015979775   -0.94177451274185   -2.34080045133765
C        -4.19519015770190    0.18368025229824   -0.22763361528040
O        -5.06898510428917    1.17117323443102   -0.37758218325989
C        -4.96673497343955    2.33636627324616    0.42786623883800
C        -3.15582933104433    0.15138568378263    0.70378510820119
N        -2.30675891047427   -0.86645965457722    0.80628438985632
H         5.64448943371466   -2.08733885205147   -0.30183411954493
H         3.87878882064291   -1.63298069536505   -0.24195419303301
H         5.18486227238980   -4.23816967259587    0.68629901452008
H         2.84824960509049   -4.99395268595948    0.38914300254454
H         3.08288916971306   -4.31197043364059    1.98862934802487
H         2.07446620631517   -2.14016552064991    1.17570106002985
H         1.78816441133432   -2.88892172159306   -0.39068158631928
H         0.31881664683780   -4.58701831765984    0.65184167582170
H         0.64995255418654   -3.89342117419315    2.25571439721019
H        -1.43868394950988   -3.82786134487619   -0.45608115138689
H        -3.54518535994136   -2.84741351406915   -1.62071657596595
H        -5.75183651050207    2.99963382650523    0.07180217958569
H        -5.13907726002871    2.09704128067291    1.47913726846995
H        -3.99441653219637    2.81605075246713    0.29886792924011
H        -2.99923333193569    0.97605279078067    1.38016666844593
Cl        0.38260498147633   -0.04054332698085   -0.12555149787826
