67
 energy: -106.825201300457 gnorm: 0.000725720898 xtb: 6.4.1 (afa7bdf)
Ir       -0.90161656909475   -0.99995755417731    1.23826574467888
C        -2.28046840429471    0.88951102537640    3.76917291486418
C        -1.09112104019649    0.20466907464905    3.19151659571650
C        -0.73162810983656   -1.16342938004278    3.45545113987212
C        -1.44988350809093   -2.06469250072829    4.40206941132727
C         0.58357677584373   -1.38736696978355    2.91658099545768
C         1.46008136472275   -2.55032750270312    3.22468925271956
C         0.96900427588191   -0.22325469846414    2.19733489058804
C         2.32222374600179    0.03389849468063    1.63064131988323
C        -0.07474525715103    0.77775216278763    2.37839640527677
C         0.08137320989405    2.20512040020842    2.05402351278901
C         0.02678529734063    3.14226581169267    3.08486471854282
C         0.22468138580004    4.47740678494991    2.78991037779574
F         0.17685238128605    5.37611664401081    3.79548802290909
C         0.47091455747363    4.92944014986513    1.50579617601461
C         0.51362806376000    3.97520219651198    0.50417561501359
F         0.74512116745660    4.38030052307314   -0.76138740404201
C         0.32643458664403    2.62825128456925    0.74922697078079
H        -2.42335412312440    1.87340726656304    3.33291657432508
H        -2.13515281916476    0.99898624235693    4.84418410375085
H        -3.18416278345039    0.30263086634586    3.62074995271847
H        -1.22957442836785   -3.10764956448985    4.19317317894894
H        -1.12515894796684   -1.84783403501791    5.42034813028447
H        -2.52410689473107   -1.90982638524259    4.35051228794187
H         1.97760265119262   -2.35077217005356    4.16383376700650
H         0.88797953899669   -3.46626271518569    3.34257951138132
H         2.20737471400876   -2.69779239085295    2.45102516324736
H         2.69817179523644   -0.83890013979544    1.10299491740020
H         2.30703836888560    0.87775743183191    0.94761547021487
H         3.01135409049091    0.25963551328536    2.44528835715531
H        -0.14047473968346    2.84218639408797    4.10617301393570
H         0.62269864192789    5.97489027475930    1.29563613528994
H         0.34593580922454    1.92568780775574   -0.07039610264350
C         3.19135721376889   -6.59534129423640    0.46787879958465
C         2.05867890930691   -5.62472914601986    0.52524325298780
C         2.19993231061758   -4.33779307511255    0.00847001122076
C         1.16031258010042   -3.43252930006330    0.05201047369753
C        -0.06891141939887   -3.81057320635380    0.59612333572916
N        -1.12355709868783   -2.89347618965570    0.61014134537155
C        -2.31951296597784   -3.26770362006209    0.27756180342968
C        -3.33251360545375   -2.25848398012988    0.25839823981628
C        -4.66378061658927   -2.51196474244606   -0.12614509312837
C        -5.54844116229632   -1.47276882829803   -0.17858615728448
C        -5.09495836246012   -0.16262632044217    0.08665382650473
C        -5.93975774148332    0.95998321577655   -0.01757458677141
C        -5.45402853935072    2.22211269912652    0.19339447882077
C        -4.09767679935906    2.40983904718335    0.50420628091163
C        -3.25472325528426    1.33966611609674    0.63724393856798
C        -3.72818093348067    0.02709339280052    0.45145322883492
N        -2.89587488430491   -1.03413425363032    0.59115482421021
C        -0.22510766222046   -5.09992952880960    1.10985943354120
C         0.83253007218583   -5.98558935669162    1.07971846350085
H         4.14588153886272   -6.08719346965672    0.58009104552956
H         3.19504670125592   -7.09568952085331   -0.50105564513453
H         3.09689413350097   -7.35625508233204    1.23792480760879
H         3.14005800274733   -4.04557800696500   -0.43439410322586
H         1.26381296306402   -2.44346214761633   -0.36766008757131
H        -2.53069353208957   -4.27956804095390   -0.04658869150709
H        -4.95672973480182   -3.52094085416156   -0.36472541562564
H        -6.58272531190798   -1.63095089637187   -0.44269130849261
H        -6.97417916460594    0.80240099778094   -0.28136761214313
H        -6.10316890592865    3.07922479803603    0.10662555231988
H        -3.71845678150667    3.41138723327406    0.63428135550888
H        -2.20618529418460    1.48779676761434    0.83870209952935
H        -1.16157954717515   -5.38863072433852    1.56236312528003
H         0.70666629694281   -6.97487702090509    1.49250852731187
Cl       -0.38923620073568   -0.35898000441917   -1.00180367007871
