70
 energy: -115.708895666456 gnorm: 0.006458421609 xtb: 6.4.1 (afa7bdf)
Ir        0.14974251991220    0.41439992803378    1.53588280423511
C        -1.20008293561914    2.42293250645985    4.08356351363257
C        -0.15096464483172    1.44808581758122    3.67811635254960
C        -0.36211341005232   -0.00085046348732    3.60196963849620
C        -1.56031530691545   -0.71181355989013    4.14203964465695
C         0.91055577505728   -0.61585163013781    3.35597028499363
C         1.23133509654640   -2.05340585688567    3.59925223821427
C         1.80994627318113    0.42747678797268    2.99182673826990
C         3.28456645948654    0.25716691407431    2.80867945004860
C         1.16379287957165    1.71255860869840    3.31534760076992
C         1.81246466570833    3.02357804448245    3.33000089916440
C         1.70391656906605    3.81741165334198    4.47298130510543
C         2.30282206259228    5.06093436373434    4.49539745926812
F         2.18779694563634    5.81752197239017    5.61039500889287
C         3.01634971279942    5.56676366748326    3.42269137624559
C         3.10833589532165    4.75884478810522    2.30352993497725
F         3.78646515517180    5.21678966702832    1.22760192360952
C         2.52658671247676    3.50776168406478    2.23409918707668
H        -0.91403523511976    3.43861153616621    3.82011395635150
H        -1.35149006970426    2.37287404622627    5.16248693188099
H        -2.15092025019941    2.18497001900277    3.61028736375629
H        -1.71335550776953   -1.65867684507983    3.62777294849090
H        -1.40357874351218   -0.92515303841541    5.20102930651776
H        -2.45725939046767   -0.10486437166182    4.04420368809849
H         1.31910367277216   -2.21146359983636    4.67503629012810
H         0.44341025032254   -2.70186012552632    3.22663979706059
H         2.16793163886857   -2.33841068852766    3.13109944479568
H         3.50338372484192   -0.65496537510475    2.25820474171798
H         3.72736912312581    1.10629567661642    2.29532061281046
H         3.75320595278683    0.18110229469568    3.79118013324497
H         1.17629388450113    3.46594612953462    5.34444603763036
H         3.47441124511932    6.54112753748329    3.45924477970156
H         2.61133856036805    2.94256555160850    1.31977441744362
C        -5.96473613866464    0.74743787914084   -2.04660199936798
O        -4.92435893140494   -0.17600825663199   -1.76425406272972
C        -3.90017797388743    0.20019624507041   -0.99846217452467
C        -3.73440202708238    1.47199815895185   -0.43410632108346
C        -2.62060551412380    1.73214385637428    0.34350658885979
N        -1.69793889490938    0.81392468101667    0.58180378966329
C        -1.84858516450199   -0.42986326760683    0.05250146818790
C        -0.67316712815435   -1.17118744700717    0.49118172355689
N        -0.46839578926679   -2.38261589026994    0.28013587018081
C         0.60329486890779   -3.20440458895276    0.48205982011456
C         1.92270741905366   -2.76397773749472    0.41520697510086
C         2.96358659952882   -3.67256612060581    0.49748267095750
C         2.71471380744538   -5.02612825409418    0.68949687442508
O         3.65984135332570   -5.99306359143272    0.78396976512376
C         5.02024763592798   -5.62789202785575    0.65486944673525
C         1.37062955123805   -5.47637915647724    0.79247817755879
O         1.21469834305358   -6.81156305176121    1.00179311548913
C        -0.09856491413000   -7.32611192418674    1.10043107227205
C         0.33862675146756   -4.57051911680303    0.66246975659588
C        -2.91550682360179   -0.77236006960601   -0.74605463777088
H        -5.58535193427169    1.61352050600257   -2.59455391046810
H        -6.67175187943970    0.20431063494097   -2.67014169524328
H        -6.46213676863599    1.07294623260964   -1.12966930282591
H        -4.45285882292543    2.25809603115314   -0.59325079709702
H        -2.46885734070380    2.70885701820166    0.78129292282748
H         2.37838621828874    0.82515798555854   -0.88821116059762
H         2.12292771348537   -1.71010264773623    0.27184258446256
H         3.97911398825740   -3.31586249385809    0.40746790623339
H         5.57909252642973   -6.55884178361899    0.72569848408220
H         5.21623361872217   -5.16130695641274   -0.31700079185363
H         5.32836933985121   -4.95695744361850    1.46247826205227
H        -0.66088061406513   -7.15761370288878    0.17642339142888
H        -0.63454626940749   -6.88339188188409    1.94725417840610
H         0.01629267723861   -8.39683656416245    1.26342190486980
H        -0.69221473768376   -4.88734924549234    0.70854626167521
H        -3.00641984971265   -1.75932027385076   -1.16570565981421
Cl        1.20386582349298    1.20773762527576   -0.55826330712917
