74
 energy: -116.208275250575 gnorm: 0.000298448214 xtb: 6.4.1 (afa7bdf)
Ir        0.30189482656669    0.26524549847892    1.59543390145838
C        -1.12399936330129    1.50517267613220    4.35806868590040
C         0.12467614481638    1.11901618706189    3.64509455226174
C         0.77696352810379   -0.14788213714707    3.75445674499699
C         1.99121509653670   -0.08776089428655    2.98106936250721
C         3.08816919984665   -1.10016832548001    2.97507716222067
C         2.13734989679986    1.26182459631045    2.48996313936441
C         0.96612680705195    1.99135562308515    2.85136169004628
C         0.76114697881276    3.42699979191910    2.62488893348620
C         0.43331116254161    4.27353530106217    3.68324225624116
C         0.27526667320467    5.62811110787469    3.47083695771598
C         0.43809779461219    6.18010840763014    2.20080288390996
C         0.28636225493737    7.62652021968251    1.98765228033501
C         1.17105193344027    8.31730586092993    1.16167326798893
C         1.04171358639155    9.68169390730494    0.97791114770871
C         0.02245356820847   10.37624556792811    1.60899713057312
C        -0.86751428135667    9.69776951114638    2.42588287531445
C        -0.73501591829747    8.33477630067746    2.61763067788264
C         0.76346813036286    5.33027762554166    1.14464365375262
C         0.92436816331135    3.97483315664306    1.35119878364666
C         3.35706167516457    1.80051055878581    1.83619431621810
C         0.34796580401750   -1.25513132786384    4.65328596902394
H        -0.89045742876839    1.72380079636230    5.40081018541468
H        -1.84665560288463    0.69257633162738    4.34868080880733
H        -1.57289854010715    2.38970608671082    3.91376048861111
H         3.78939730068296   -0.86994937832029    3.77798210292029
H         3.63116396077127   -1.07465964762756    2.03441167769320
H         2.70783175631829   -2.10387711425909    3.13675623607677
H         0.33724074598959    3.87561010177093    4.68077971935498
H         0.04722823617057    6.27431401537859    4.30479216573600
H         1.97920214290569    7.78647374750240    0.67969151812795
H         1.74011688909082   10.20711405677717    0.34271226924581
H        -0.07780632481721   11.44196336820144    1.46459418073604
H        -1.66724186292769   10.23437374025637    2.91548866027953
H        -1.44334993971804    7.81034854258306    3.24227876552410
H         0.87565038009329    5.73418837989070    0.14981918578893
H         1.16237134151310    3.32904825590859    0.51806900332692
H         3.44495745291989    1.43386937766126    0.81344296261457
H         3.32778690224035    2.88669952442385    1.80751093851461
H         4.23919473631805    1.47346070143832    2.38404817360514
H        -0.72923665268052   -1.39729720662043    4.62522973512072
H         0.84045601445299   -2.18956744173584    4.40278925818439
H         0.62269080353161   -0.99589036627599    5.67643240360832
C         3.55200916055864   -3.66236049486444   -1.63230082620864
C         3.16566936915324   -4.46312570161130   -0.65654216273706
C         2.04749910926421   -4.22812469536414    0.31590277837967
C         1.30540141288239   -2.91201449894384    0.10966547268007
C         0.15354053655953   -2.76327459147799    1.11684349677359
N        -0.48204187467086   -1.48085562184122    0.94658781734551
C        -1.53815554750663   -1.39978757030924    0.20675996775991
C        -2.10826083595009   -0.09960578191916    0.00023347889468
C        -3.20326528130338    0.16656481773755   -0.82577500867786
C        -3.64776617674294    1.46657815047790   -0.95533493126053
C        -2.97372968910406    2.46687937417068   -0.24973217254272
C        -3.39167383939056    3.90798780431548   -0.36843860201701
F        -3.09806629116894    4.61526196165320    0.73204186992248
F        -4.70794475301207    4.04432021061088   -0.57902946785161
F        -2.77599126258314    4.52560458283708   -1.39316744871091
C        -1.88935331708714    2.13715877684113    0.54865466274085
N        -1.47024266278896    0.88627715548543    0.67887274096943
H         4.37030707244932   -3.92770711760418   -2.28031467477142
H         3.08363287270353   -2.71517429669788   -1.83538863354919
H         3.68123014896722   -5.40382763413840   -0.50522228478392
H         1.34778586742657   -5.06487842628271    0.23002668335798
H         2.46589145117066   -4.26757842956929    1.32557517324452
H         1.99216472078744   -2.07357764874872    0.22475964416012
H         0.89569215545812   -2.87468569387928   -0.90002553444658
H         0.54757696270986   -2.82641016730218    2.13160959737082
H        -0.57196141776340   -3.56715142960968    0.96193346527397
H        -1.98472699134591   -2.27460260093444   -0.25292284262705
H        -3.68280223850492   -0.63858685537420   -1.35873141498875
H        -4.49292851175027    1.71224741003914   -1.57960147143567
H        -1.35065797199881    2.90385923817189    1.09008023794064
Cl        1.19710184963245    0.54705568907154   -0.58478342203143
