64
 energy: -110.409588317295 gnorm: 0.000411662207 xtb: 6.4.1 (afa7bdf)
Ir       -0.83356839564255   -1.12110762326103    0.83783340508473
C        -1.88339610937644    1.68247411643066    2.54045688769865
C        -0.79990525834553    0.73503469824521    2.14947588394034
C        -0.39258840887789   -0.42632627946599    2.91790156292476
C        -0.98070323948708   -0.89001179783425    4.20396775759025
C         0.83258970531869   -0.91625918865484    2.36224012375070
C         1.70580433491535   -1.94218745236043    2.99170966906947
C         1.11495445896135   -0.15709591169332    1.18247591101816
C         2.36586129005085   -0.20547824540239    0.37359134986732
C         0.12482753135954    0.90784185930233    1.09193626342204
C         0.21109005193666    2.04499011901729    0.13508659094371
H        -1.47496464714001    2.41199918280313    3.24131343079803
H        -2.70460053485844    1.16947269855487    3.03504805620314
H        -2.26618216372637    2.22682979614064    1.68069999719607
H        -1.95023293856698   -0.43723909365571    4.38495982346300
H        -1.09351384318046   -1.97235994252347    4.19726255023747
H        -0.31368358211630   -0.62390503858349    5.02390892510649
H         1.11050207692324   -2.69067798433016    3.50630666129857
H         2.34219384806212   -2.42861202917211    2.25828245783674
H         2.34311315230887   -1.44996526967114    3.72702997200719
H         2.15567937502763    0.01553247788100   -0.66961966665873
H         2.84093520707490   -1.17948657330775    0.44180319885246
H         3.06114459460298    0.54729429014408    0.74588925909632
H        -0.66738620363631    2.68035862130943    0.18927082780791
H         0.31427896866118    1.68071649397043   -0.88523708392069
H         1.09215928560649    2.64227098985919    0.36887054736597
C        -1.27359652779844   -6.51158829382263    4.23565392093969
O        -0.40905473460149   -6.22652481680707    3.13475342254365
C        -0.41785844106730   -4.99743834232632    2.64039065133752
O        -1.12227006390755   -4.09908551703387    3.05032714398917
C         0.56180059905787   -4.83189276768031    1.53098027736353
C         1.72630223117630   -5.59107310138032    1.51473823201246
C         2.70574490268260   -5.36675727765345    0.54743982462553
O         3.85526748776771   -6.05010837432510    0.44290961689525
C         4.12193246769443   -7.10852670532675    1.34768773398292
C         2.50798855560065   -4.34106533848035   -0.39104345064909
C         1.36064562108072   -3.58431609408793   -0.37732869058638
C         0.36437446468150   -3.82841239398287    0.57078813627245
N        -0.82070102671487   -3.08506103255480    0.53155941498537
C        -1.95091461993659   -3.67194749602001    0.28450112093384
C        -3.11731756549150   -2.84742817664284    0.29098226718252
C        -4.39879587988239   -3.27649773772223   -0.07030885317956
C        -5.44252000203380   -2.37586087977588   -0.05069823073226
C        -5.16608434134703   -1.05848230247907    0.32489640307140
C        -6.24380440003746   -0.00839925654234    0.36204956449518
F        -6.18973455698177    0.72448152071033    1.48787676953691
F        -6.13180200460857    0.86620086357254   -0.65454627834617
F        -7.47577841865916   -0.52197610191587    0.29255113191752
C        -3.87059381974718   -0.69439050147670    0.66121594771980
N        -2.86943773360213   -1.56315099446274    0.65793904267641
H        -1.50549472174391   -7.57154851387142    4.17709445357051
H        -0.75704617649773   -6.29048387283759    5.17058717806389
H        -2.18003927952766   -5.90890229826575    4.16978747186047
H         1.85189264851019   -6.34429213582853    2.27419534130944
H         3.36254915028831   -7.89062109236619    1.27624268032811
H         4.18583289329957   -6.74246383933739    2.37529504966270
H         5.08675946980216   -7.50990960666669    1.04544127007397
H         3.27541174351111   -4.16831990986572   -1.12788890489189
H         1.19650288355033   -2.81180765947169   -1.11242806159715
H        -2.00736842679300   -4.73061399645751    0.06184369266139
H        -4.55602206097762   -4.30036171477517   -0.36828548468267
H        -6.44559078404692   -2.67103352483728   -0.31662541939707
H        -3.64404575775337    0.32382394420527    0.94302674453788
Cl       -0.94379233074308   -0.85296657519196   -1.52502649245054
