58
 energy: -100.532746353341 gnorm: 0.000700053537 xtb: 6.4.1 (afa7bdf)
Ir       -0.79995088330837   -1.12605709046755    1.27254379547470
C        -1.94683310205826    1.08430375333472    3.78371635971461
C        -0.88477462384872    0.28263430719780    3.12118646539757
C        -0.56255471090512   -1.07505067763802    3.49349642387456
C        -1.25256568339158   -1.84552522327790    4.56673654381662
C         0.70704579076010   -1.40687810347346    2.90884347472994
C         1.54817161958237   -2.57310324775440    3.29346305292040
C         1.08837738630408   -0.32273320316895    2.05651450238551
C         2.39551459175138   -0.15006909625912    1.36512843164635
C         0.09583081240074    0.73054366223880    2.19880625599113
C         0.26219180902154    2.10450946677617    1.64893382373683
H        -1.66496245283312    1.21702436923422    4.82894619250782
H        -2.90805867359607    0.57692434920161    3.76431493467379
H        -2.05551497280267    2.06237719901020    3.32806760210508
H        -2.31739119023886   -1.63133009098676    4.57911409824914
H        -1.10475886171346   -2.91447293197161    4.44261717680879
H        -0.83901107441736   -1.55824730285231    5.53427304435892
H         0.94358503820231   -3.44385036502856    3.53129120056790
H         2.25603665619629   -2.83690599836852    2.51331849562752
H         2.11433916033199   -2.30273517433499    4.18571101160914
H         2.25415881939427    0.28604519233857    0.37888864333011
H         2.91908022251435   -1.09570676106000    1.26295388265889
H         3.01711202894873    0.53135206350504    1.94675503257177
H        -0.66042534078328    2.67258798702196    1.71050137879682
H         0.57542340077490    2.06458663417828    0.60845572759394
H         1.03509540870973    2.62497542725976    2.21439486058243
C        -7.07581518351848    0.32619687769380   -0.88466865465062
O        -5.76553595159616    0.46340108683358   -0.35280784563715
C        -5.00236506149739   -0.60940356360769   -0.19337957713669
C        -5.34018980383369   -1.93135991602383   -0.50162381178935
C        -4.39715166477790   -2.91816595113742   -0.30672605560045
C        -3.14694067264772   -2.59594342362826    0.22185051054196
C        -2.06560880923800   -3.52196985870848    0.30679169892184
N        -0.91028775401124   -3.06959214522935    0.67917262616536
C         0.20375069511478   -3.92109998835676    0.65920687824397
C         0.16375141399756   -5.17120834724976    1.27665105838851
C         1.27219158266661   -5.99531733386842    1.23464337030743
C         2.41616762988316   -5.57786971471221    0.56261540308400
C         3.61674860049323   -6.48127276401591    0.54377256576909
F         4.30045838527077   -6.43427780818938    1.70864179546707
F         4.49954193238742   -6.17291954981471   -0.41767952651961
F         3.28937633553725   -7.77326086681603    0.36295447234212
C         2.46256982110231   -4.33205761811678   -0.05389752693395
C         1.35941696387871   -3.50207956827002    0.00110820924274
N        -2.83267258973454   -1.32176287587123    0.58920508076140
C        -3.71927572852250   -0.37459549949859    0.34795370168647
Br       -3.28595410474169    1.41444341071973    0.69321452338371
H        -7.69843625878127   -0.29050746174482   -0.23325978961520
H        -7.47529803034585    1.33714864391474   -0.92326525877509
H        -7.04717382160667   -0.09599902675541   -1.89133882472908
H        -6.30811125182276   -2.17428884410280   -0.90837239030083
H        -4.61196020720937   -3.94030575495438   -0.57305094020100
H        -2.19568638078151   -4.54640304938684   -0.02358987536197
H        -0.72345858827226   -5.48661879810815    1.80324500796222
H         1.25179411810986   -6.96233937978076    1.71264846081654
H         3.35320583586282   -4.01941902956486   -0.57640870915772
H         1.36749084336435   -2.53846466922796   -0.48415313814235
Cl       -0.41247746972395   -0.50588835706112   -1.00272685027885
