76
 energy: -118.532112901775 gnorm: 0.000138996766 xtb: 6.4.1 (afa7bdf)
Ir        0.17924197452670   -0.54573140791207    1.52345172383922
C        -1.34649874337118    0.90803848739028    4.16487370627007
C        -0.08597427654004    0.44546536367243    3.51913211411128
C         0.53359833683731   -0.82152316955047    3.75235211006828
C         1.78885992506614   -0.83984217588561    3.04613804940638
C         2.85448574064565   -1.87818706752179    3.16617445359301
C         1.97792270628311    0.45095453149537    2.44932458774324
C         0.79795084973307    1.23177493941025    2.69393310743297
C         0.65461165348447    2.65662954423311    2.36596641715009
C         0.39794460061888    3.59046209579881    3.36876796446378
C         0.32345069874467    4.93580650969368    3.06690086123419
C         0.49800418857140    5.38898541759460    1.75991325473969
C         0.43588018282443    6.82386741465553    1.44491446772592
C         1.33686727497770    7.39016847250541    0.54488252803459
C         1.28568028208985    8.74067430581837    0.25280356936679
C         0.32933944766425    9.54673557851613    0.84877940022142
C        -0.57396073671352    8.99352809656515    1.74174173834944
C        -0.51920780342907    7.64473007517078    2.04139516004712
C         0.74178076800235    4.44927393782085    0.75893984698717
C         0.82235823979688    3.10393058119032    1.05550030219974
C         3.23590424251401    0.93347558647458    1.82170130816883
C         0.05278153965395   -1.81673216852382    4.75203271571686
H        -1.14640476883804    1.14565005883412    5.21061057349073
H        -2.10511621225379    0.12901253373265    4.14574364381445
H        -1.73466182509935    1.79948744122413    3.67988402839583
H         3.42449195267440   -1.70647663649109    4.07977652723768
H         3.53412097366493   -1.82459194553626    2.32058930630884
H         2.42936583287265   -2.87719281347692    3.20429962919766
H         0.29119242468179    3.26478157389844    4.39174395949089
H         0.15332566413791    5.64980033000395    3.85859595219124
H         2.09677060607631    6.77359724497565    0.08730347574251
H         1.99515103726523    9.16727532128800   -0.44159134216491
H         0.28830531248587   10.60126870676847    0.61854648706258
H        -1.32478762417347    9.61687697788739    2.20531996682905
H        -1.23707742495176    7.22079855898623    2.72817095245863
H         0.85620477040854    4.77702909320376   -0.26326155968675
H         1.00145816718270    2.38651762723065    0.26795060971388
H         3.43347643972580    0.41079960889906    0.88658805753294
H         3.17361843511226    1.99802454691326    1.61108756394649
H         4.07165133802223    0.74533127499754    2.49452262360096
H        -0.97640131626527   -2.11378378755692    4.56234850104538
H         0.68916867611744   -2.69540129175911    4.76931212048182
H         0.08212476500880   -1.35511112784938    5.73984501827505
C         2.95621311302091   -7.65629705027299    1.92290470862455
O         2.66168051474494   -6.93284465611485    0.74291083992633
C         1.89675205835126   -5.82905134388963    0.82576047454722
C         1.33342334042377   -5.32421136838785    1.99108721091554
C         0.57829843821411   -4.16385256081623    1.97300281086874
C         0.34187673851599   -3.50640355687227    0.77296072055915
N        -0.43610639384892   -2.34837512513164    0.73650557073170
C        -1.40209421815991   -2.26267728829398   -0.12883215613318
C        -2.07929585623399   -1.01163563628398   -0.24929220870822
C        -3.15328401609975   -0.77394225072194   -1.11453625965075
C        -3.70608684972480    0.48583459716779   -1.17742356985841
C        -3.15698701214871    1.48312592832975   -0.36981730284724
Br       -3.86069852378434    3.24964195240069   -0.39896957207652
C        -2.09363556937125    1.18955750736568    0.46991041988801
N        -1.57002239160177   -0.02868673052557    0.53739625722916
C         0.87698229211535   -4.01907398733698   -0.41816592048132
C         1.66780262885090   -5.14993285152054   -0.40432089490805
O         2.26419978920890   -5.69706158406694   -1.48652691915929
C         2.08563319510067   -5.07940144885883   -2.74548535738962
H         3.50782923886135   -7.04029015233740    2.63784461781354
H         3.58070659002172   -8.48803762245911    1.60359835465767
H         2.04582517500082   -8.04323373644185    2.38825862064048
H         1.47880189367105   -5.83778586791720    2.92710142131672
H         0.11764217544517   -3.80187592972912    2.87571652199941
H        -1.68153775807410   -3.10648870400463   -0.74812650764319
H        -3.53119310007006   -1.57552390648431   -1.72827712723072
H        -4.53351870777736    0.70478895186058   -1.83352695628406
H        -1.65576632807395    1.96122954809783    1.08694406519744
H         0.71119715996547   -3.47096884809128   -1.33098856968517
H         2.66798815603708   -5.67506474865490   -3.44536083248492
H         2.46056715146214   -4.05216334299639   -2.74244302377351
H         1.03429727393406   -5.08958386794256   -3.04641424205774
Cl        1.17576048583630   -0.31815856403132   -0.62491067640077
