84
 energy: -130.780427424494 gnorm: 0.000365765186 xtb: 6.4.1 (afa7bdf)
Ir       -0.65947569415848   -0.83803751414101    1.67332073802013
C        -2.25099242550819    1.00527665803853    4.06152732308579
C        -1.00341809766732    0.34793888982303    3.57878737364489
C        -0.60949555671795   -0.99461174259615    3.90145617229666
C         0.74693840004044   -1.17979861756586    3.44490615382073
C         1.68419640360114   -2.26891488048267    3.84084358654214
C         1.14077479481551   -0.00347199653766    2.75144512256972
C         0.05498002608378    0.95604063242030    2.83055316189388
C         0.20557012819332    2.38911929158155    2.53134861373171
C         0.02980723175630    3.31788879271385    3.55622219143158
C         0.22825179183967    4.66361780115416    3.32260509470413
C         0.60592366058899    5.12373903198124    2.06219186112879
C         0.83218436372718    6.55715957867673    1.82395079833280
C         1.90890641912987    6.98504251445032    1.04972521413726
C         2.13005840732074    8.33332677147741    0.83618068937659
C         1.27514760087508    9.27539381132186    1.38497068177195
C         0.19915019845539    8.86092936310794    2.15286553757307
C        -0.01904162810519    7.51351590965200    2.37412370701975
C         0.77141541603221    4.19195037809465    1.03835621936306
C         0.57597083825984    2.84452085401365    1.26679946010493
C         2.51955721829240    0.29304590722717    2.27751580659167
C        -1.35856034077795   -1.89718423585681    4.82362765393002
H        -2.17008297215673    1.16746270713761    5.13692265891254
H        -3.12231879097229    0.37683128967756    3.88951370253298
H        -2.40424733750747    1.96332767075221    3.57335930204746
H         2.48972366467313   -1.83347565513445    4.43251448561870
H         2.13355767209195   -2.74837166554195    2.97338005710783
H         1.18575399489294   -3.02158192816254    4.44206994345617
H        -0.23186378942699    2.97993671267561    4.54680694720734
H         0.11394117000603    5.36681234026573    4.13374055722175
H         2.58963700847752    6.25729826820498    0.63231333855984
H         2.97417198323108    8.65243411083491    0.24182360851623
H         1.44803133049776   10.32820853550211    1.21648085526096
H        -0.47186665440658    9.59183021180991    2.58023441838507
H        -0.86834000719584    7.19869075676147    2.96280252553624
H         1.03966006379969    4.52966657806755    0.04857574450415
H         0.68524894280489    2.13990108945351    0.45496652623103
H         3.03020497722485   -0.61436139172066    1.96783053046641
H         2.50806333324309    0.99350073894411    1.44784185962912
H         3.07933836372850    0.74704139176742    3.09678587257694
H        -2.43127527604446   -1.77346102479353    4.70284646595267
H        -1.10493210905207   -2.93956482271883    4.65456215199966
H        -1.10333466665023   -1.64705404067354    5.85440063871936
C         0.75788590778271   -2.16621495643241   -3.66349776897941
O         1.11353928643460   -2.86184389724751   -2.47207998606777
C         0.12749190478985   -3.16572148212996   -1.63884466661701
O        -1.04619695634320   -2.96157064212021   -1.87007446497413
C         0.62689174767598   -3.88377893614553   -0.42978578648768
C         1.68484159843900   -4.77465795413447   -0.56821435565733
C         2.12468037603897   -5.53065788553747    0.51653213029343
O         3.12435585867891   -6.43147230145907    0.47637646900688
C         3.80462110888232   -6.65799897289620   -0.74475371581872
C         1.48669196779610   -5.37336030834985    1.75400337286388
C         0.46858333140636   -4.46077087606125    1.90518440349902
C         0.02793435553309   -3.70080771299301    0.82356109530743
N        -0.99072187572715   -2.74493854550716    0.98277689006896
C        -2.14914878879050   -2.97577791148036    0.46523951261809
C        -3.08275531456151   -1.88932626644223    0.42372342587303
C        -4.40121381354397   -2.04452442337778   -0.04516396113528
C        -5.21525448577197   -0.95006452592509   -0.11185169657075
C        -4.68945764939747    0.31923227662017    0.21015655262602
C        -5.45068821259674    1.49856415023096    0.09038843826799
C        -4.89074589592645    2.72218069360021    0.34151942358578
C        -3.53830646601290    2.81218579076088    0.70488352920950
C        -2.77924666824496    1.68344383418943    0.85921513438449
C        -3.33224244175013    0.40782675116897    0.64392474367832
N        -2.58126702746721   -0.71042567418724    0.81691146373895
H         1.66118546263368   -2.11812296735177   -4.26488298134790
H        -0.03695077018450   -2.69768528314332   -4.18988373885155
H         0.41009931133127   -1.16300853308646   -3.40975609458331
H         2.13736106093913   -4.87533521201159   -1.54034430157573
H         4.29330277446870   -5.74768684753379   -1.10115492393416
H         4.55717658513733   -7.41110024688850   -0.52051590873446
H         3.12509828037396   -7.03902037117350   -1.51167491577804
H         1.81579325750323   -5.98155705803361    2.58057249189015
H        -0.02730581021290   -4.35239998673978    2.85518820679031
H        -2.40457745240120   -3.93767072245176    0.03824042788254
H        -4.73968433985969   -3.02573138486084   -0.33389619903217
H        -6.24202563938281   -1.03316242948269   -0.43292975159613
H        -6.48042361619439    1.41538398585095   -0.22157616976202
H        -5.47758038546018    3.62171554397442    0.24217246916902
H        -3.09010193809429    3.78125554915965    0.85924788869116
H        -1.73248091248487    1.75820427769990    1.09934577103124
Cl        0.24897622722706   -0.40135160974423   -0.47426780449670
