55
 energy: -85.340489337518 gnorm: 0.000545669784 xtb: 6.4.1 (afa7bdf)
Ir       -1.07014695069013   -1.19285714478792    1.37057138091785
C        -2.43155874363231    1.07390824545161    3.56223323417373
C        -1.28251311823644    0.23780910692978    3.10985461198713
C        -0.99171549727387   -1.09564844691057    3.59002656315835
C        -1.77868193373934   -1.82230360959380    4.62731040075391
C         0.32554333927033   -1.44998141278764    3.13715906235149
C         1.10384898637003   -2.63565088303575    3.59133106823854
C         0.79167728553007   -0.40596913817092    2.28632636339558
C         2.16278203609070   -0.25680596692526    1.71962251134081
C        -0.19958068867138    0.65641949409988    2.29578742218383
C         0.02030680320446    2.00497301468976    1.70190734429482
H        -2.15830599714348    1.56559326032449    4.49686898953406
H        -3.31410649984809    0.46812991211673    3.74942517848596
H        -2.67062613294169    1.84750582663299    2.83724331854172
H        -2.84592765976127   -1.67002164359855    4.49183035919055
H        -1.56906831968189   -2.88767471277848    4.60434077537611
H        -1.50599574939413   -1.44402528761193    5.61318679961255
H         0.45940050375183   -3.49242654363364    3.76884943644537
H         1.86382218452937   -2.91379220240928    2.86666710590211
H         1.60212549566798   -2.38695123288609    4.52904940945177
H         2.12109838606244    0.17501098027965    0.72231146063073
H         2.67790142146703   -1.21155029971817    1.67171553573112
H         2.74103549304809    0.41680021048097    2.35284304926060
H        -0.87586256624238    2.61554570540776    1.75341241930805
H         0.32484507880528    1.92082739698242    0.66036977641455
H         0.81917038014148    2.50924418978652    2.24571711278885
C        -7.73958366914853   -1.37581337118357   -1.05318308207133
O        -6.66539447598313   -2.30663443834128   -1.03344790278776
C        -5.52154796807458   -1.97700072510792   -0.44536719071885
C        -5.24902878696466   -0.75872521915873    0.19718013717575
C        -4.00944491086024   -0.55650744659716    0.76638835991378
N        -3.03924127780366   -1.46516139596357    0.75376097005398
C        -3.27771599134892   -2.64425983056708    0.12202294315083
C        -2.14228245517740   -3.52198930036480    0.09799561085138
N        -1.04506603809477   -3.06897565235676    0.61314753627838
C         0.11292906337305   -3.86200869132506    0.60319245591678
C         1.29431992153370   -3.32956483639235    0.08722412639844
C         2.44233005234957   -4.09659313107655    0.05326150461612
C         2.39819167406373   -5.38743446499674    0.55628482853418
F         3.52084296229708   -6.13474758948880    0.53580221868703
C         1.23889895370269   -5.93271064810770    1.08234581692812
C         0.08823050245835   -5.16648204603707    1.09643401414056
C        -4.49442978624387   -2.93035874228073   -0.47372699815991
H        -8.07399672924630   -1.14178246706455   -0.04040990287131
H        -7.45589147744364   -0.46105270803702   -1.57774208899897
H        -8.54107755547423   -1.87218663940655   -1.59566325042182
H        -5.98431198757840    0.02591350864817    0.25454046524733
H        -3.78684932146182    0.38001724102749    1.25443344299653
H        -2.19347574453362   -4.49470457235032   -0.37673972500088
H         1.28599259059647   -2.32828599756284   -0.31400667077552
H         3.36205578406337   -3.71220167333153   -0.35832559934579
H         1.24647449357962   -6.94013424473056    1.46644711759112
H        -0.82346031088991   -5.56856041592202    1.51048946074069
H        -4.65779958061873   -3.87027707618153   -0.97412063616123
Cl       -0.70723146772232   -0.41574024406931   -0.86033865135970
