59
 energy: -81.548556364934 gnorm: 0.000658189232 xtb: 6.4.1 (afa7bdf)
Ir       -0.24643332456706   -0.66897455180717    1.47331042624118
C        -2.18871337288224    1.13609220730399    3.68498682532253
C        -0.87933768040549    0.53381225568981    3.30947342967177
C        -0.45282259946280   -0.79225791597786    3.69620287665848
C        -1.23471191576389   -1.72332171529341    4.55813439605671
C         0.94886580913024   -0.91097028564182    3.39442264887257
C         1.84871060479593   -1.98076749329954    3.90942318104649
C         1.34646402739290    0.27038631299208    2.70146546379122
C         2.73301736580852    0.66666215111085    2.32778232553659
C         0.20702838753837    1.17642776341974    2.66939587077339
C         0.29137215305783    2.59637970643825    2.22616608686525
H        -2.15154405996350    1.41340528284372    4.73939169354208
H        -3.00626382333931    0.42990684299205    3.55972589277729
H        -2.39671281584898    2.03539562606899    3.11201158704197
H        -2.29804564175317   -1.65726140130355    4.34663105914125
H        -0.91176506979693   -2.75152219738537    4.42400754540422
H        -1.08108269463059   -1.45381382314652    5.60380701246438
H         1.34248472338875   -2.94068459535439    3.96658940183474
H         2.74776406238414   -2.07437414240110    3.30660318060170
H         2.15493283064958   -1.70830651203454    4.92069600453152
H         2.73618653711962    1.20098510793259    1.38082735315727
H         3.38620781762635   -0.19613792434568    2.24481341323309
H         3.13299802339138    1.33337400324390    3.09233309113532
H        -0.68578398581266    3.06901895426267    2.20454336121446
H         0.73054237999123    2.66189902214439    1.23258910314101
H         0.93126188223664    3.15093075075727    2.91258641367714
C         5.82806243856549   -2.70823764845098   -2.94954858822590
C         4.90063487525221   -3.01849823770612   -1.77936941340828
C         3.87642156815058   -1.90472211120035   -1.56499717282723
C         2.99794772088042   -2.10388580763858   -0.32936780685533
C         2.07003031052721   -3.30993921168864   -0.44898868798388
C         1.07089294254825   -3.39888733681266    0.71784685568959
N        -0.04131230804500   -2.48030284057246    0.57937146255310
C        -0.97579898262169   -2.80528904041999   -0.25436122059839
C        -2.08500346012167   -1.91336792956252   -0.39418839087785
C        -3.11924933315684   -2.06291117196944   -1.32257296934989
C        -4.12144932384806   -1.11776762495351   -1.37819287720322
C        -4.05272662146783   -0.03893508837094   -0.49721035749050
Br       -5.39840231919100    1.30831341129007   -0.49955194161277
C        -3.00148318633701    0.05495505611747    0.40299900138723
N        -2.04495553696845   -0.86179021137741    0.46265507914252
H         5.25869275583494   -2.59812644716360   -3.87043078967227
H         6.55189429494544   -3.50847450442744   -3.08900931502861
H         6.37218858104375   -1.78234049270823   -2.77392492523717
H         5.49764691334907   -3.14208089485959   -0.87278483662721
H         4.39076899249042   -3.96271193853752   -1.97722787066625
H         4.41131197987750   -0.95813068230985   -1.46002949055221
H         3.24249167204370   -1.82102110585287   -2.45035202611762
H         3.63961324756443   -2.22564916548324    0.54540800323353
H         2.39263794236389   -1.20726455482047   -0.19216514273059
H         1.52336344462934   -3.25343407178440   -1.39123259511403
H         2.65858439291199   -4.22723802719155   -0.45030552001615
H         1.59494568307209   -3.18304891236030    1.64656079188171
H         0.67390924182716   -4.41737304097821    0.76204004895238
H        -0.93337453866296   -3.72454692986468   -0.82839056913459
H        -3.11754749696355   -2.90674881197003   -1.99366386388214
H        -4.93305202818144   -1.19985323124992   -2.08350603232897
H        -2.93882728445986    0.89006952541369    1.08375830894979
Cl        0.37032880185771    0.40647065021736   -0.57250979196424
