71
 energy: -124.439089196794 gnorm: 0.000504527604 xtb: 6.4.1 (afa7bdf)
Ir       -1.09882369491331   -1.39830678480285    2.01550803321404
C        -1.83942414670635    1.49859358686158    3.55801629885639
C        -0.76061922014838    0.54995988599363    3.13074702603799
C        -0.36968353381075   -0.54870731277161    3.90226600135969
C        -1.01559311588624   -1.06956900760246    5.15197199404436
C         1.10567971423145   -0.81923007092819    3.63097934873459
C         2.01316243781779   -0.99413816089262    4.82291615834818
C         1.49210482863197    0.25836202804729    2.63871926543388
C         2.88854180613042    0.33613902820715    2.13747098758277
C         0.41207338018311    1.00062910833785    2.32086288733298
C         0.38401723322655    2.09724800212750    1.29772563866519
C        -0.73216451117429    1.89696201744002    0.26557016255396
C        -0.62003153279843    2.95405850454788   -0.83038606872915
C        -0.69093585684418    4.35707183852181   -0.23192921568116
C         0.40630467147888    4.55230867933018    0.81167950890697
C         0.28782195091657    3.50012604971444    1.91145478341694
H        -2.54645423791733    1.01526359377300    4.22503937876054
H        -2.36968706055762    1.95395900159116    2.72830715781821
H        -1.35717706717995    2.29541715618632    4.12501291022825
H        -0.74186462223065   -2.10759040851287    5.32295306865309
H        -0.67647163146696   -0.48359465385660    6.00644133806652
H        -2.09822991473075   -0.99996134290748    5.10246018913900
H         1.67569379896906   -1.80909928759372    5.45657028194608
H         3.03028529053100   -1.19880259213592    4.49978256877381
H         2.01089804079627   -0.07222841924483    5.40040396033834
H         3.30973113390260   -0.66140533769038    2.02779639631631
H         2.94094994666641    0.84437110299036    1.17933375543597
H         3.50929226617309    0.88773693523373    2.84377425713763
H         1.33456446264570    2.05588545534750    0.75595513229656
H        -1.71023251733089    1.98268471641163    0.73811567527564
H        -0.64955881654504    0.89893187658543   -0.17120789244514
H        -1.42371681527678    2.82242055342481   -1.55749614282322
H         0.32866473027850    2.83575274011607   -1.35900331559770
H        -1.66671743975083    4.50537786108611    0.23677724087743
H        -0.58771782236727    5.10293132393059   -1.02277878581559
H         0.32896821554904    5.55008535106398    1.24839942373542
H         1.38400520886491    4.47682747993483    0.32980098948701
H        -0.66785836125370    3.63168335319801    2.41554028348182
H         1.08510864601899    3.63409986654203    2.64456011574196
O        -1.04326250768078   -4.79380016778190    2.18681228053126
C        -0.29682029506850   -4.71828869590836    1.08284745390034
C         0.60525314087017   -5.75206207181214    0.82891087738844
C         1.39098512667014   -5.74687102198175   -0.30328443995039
C         1.27870742999893   -4.69917724917261   -1.21413187341401
C         2.14640718021064   -4.65429902692170   -2.43650016388528
F         3.22073598850069   -3.84869664412805   -2.26972132138941
F         1.49832636980919   -4.17074263463809   -3.51357696599949
F         2.63201640611009   -5.85296016762118   -2.78903746425421
C         0.39494178378460   -3.65686908087232   -0.98385978518447
C        -0.38898402478942   -3.65005648837030    0.16519644396296
N        -1.25184140212716   -2.58095955102060    0.45426993489324
C        -2.03607372025483   -2.10106615202385   -0.48329840782357
C        -2.97789858600821   -1.12475897352454   -0.06264908714179
C        -3.99611929917256   -0.61819082937962   -0.87817055332334
C        -4.98022329707520    0.17312842452831   -0.32904530541781
C        -4.93952003810314    0.39435019043312    1.05156191929257
C        -5.99595401523828    1.21054548251717    1.74458384225342
F        -6.39165298798991    0.65379264243897    2.90148737683229
F        -7.09193925181295    1.39138914414546    1.00143006202141
F        -5.53906276909510    2.43928591792508    2.06439801763645
C        -3.88531356758004   -0.09902419109205    1.80324224096360
N        -2.88413385056717   -0.79651294827138    1.26893452972831
H        -1.73881591995200   -4.11557722707506    2.22705458231236
H         0.66716708726637   -6.55640562778428    1.54326858724002
H         2.08430821959042   -6.55139209711732   -0.48934618201344
H         0.33751638259328   -2.83232389671847   -1.67793491773272
H        -2.04818219243455   -2.50886154946508   -1.48518569688359
H        -4.00181483294460   -0.85953964206571   -1.92836779996942
H        -5.77447371896237    0.58606449859045   -0.93003256362211
H        -3.85597577094222    0.06786211730605    2.86838989798959
Cl        1.02014808836194   -2.35029120102162    2.64221668412018
