73
 energy: -102.021411831225 gnorm: 0.000451224574 xtb: 6.4.1 (afa7bdf)
Ir       -0.61834415316627   -0.14966043417730    1.65731824717956
C        -2.32670956562763    2.14025337189484    3.59782477429229
C        -1.06312344982673    1.44314941337862    3.21460640999527
C        -0.60951711179982    0.22621930077274    3.85912780908080
C        -1.32937252989806   -0.47955837483316    4.95801174514891
C         0.75101291106123   -0.00338814086870    3.47279976560542
C         1.68309015292850   -0.97243548510078    4.11252014238324
C         1.08968346926254    0.97217717218670    2.48574849114959
C         2.44833653725794    1.18879892248585    1.90269088051787
C        -0.02117800473477    1.91070572353463    2.37219177260966
C         0.12885901227512    3.22486835014951    1.66175546841873
C        -1.09172637911808    3.73457735413633    0.89304163251725
C        -0.72146126045216    5.01381954434891    0.14601661993457
C        -0.25930825915298    6.08691712219623    1.12945178035012
C         0.92266303951937    5.58550912504371    1.95495115690229
C         0.56721245099501    4.29158631141944    2.68179361496057
H        -3.02280549193086    1.45104418072525    4.06794322082385
H        -2.80903003639332    2.61144440625386    2.74705977907239
H        -2.09148296368295    2.92042754239028    4.32246904490093
H        -0.95194210071276   -1.48916598566838    5.08908416439954
H        -1.17929680856939    0.06487692766615    5.89093218937376
H        -2.39771368718166   -0.53300902294262    4.76588315442703
H         2.19323965176453   -0.46512253193830    4.93286041751895
H         1.15119556732496   -1.82350192759350    4.52663759545479
H         2.44054562123136   -1.32723115638614    3.42009660930419
H         3.08934838803172    0.32878107990947    2.07121991391487
H         2.38632064216609    1.37300755493831    0.83208976437276
H         2.91416440291078    2.05681866781535    2.36838316874994
H         0.93525370457285    3.10857496381452    0.93128086704644
H        -1.90763213426935    3.96964178897681    1.57488517114799
H        -1.42425708007800    2.97161591755470    0.18807685319289
H        -1.58516099133249    5.37449315691150   -0.41636639539951
H         0.07602397351590    4.80612459596452   -0.57100892086677
H        -1.08429491391549    6.34775733181686    1.79694866130227
H         0.02531965985570    6.99108331270390    0.58750260721325
H         1.21652940594518    6.34516846579396    2.68227852093144
H         1.77496094161044    5.41012087999377    1.29435781532010
H        -0.24704972692250    4.47919927878948    3.38307361488060
H         1.42830417518325    3.93855032966710    3.25160206147088
C         2.13667347456678   -6.13808769113209    3.27130491521187
C         2.99780848427260   -5.50984939854075    2.49269154484216
C         2.73663473501674   -4.30532889867517    1.63730972612051
C         1.31638858711260   -3.75467998068165    1.72774416326365
C         1.15297639915705   -2.52622982158571    0.82003261402651
N        -0.18081525850163   -1.97609497509450    0.91904977115257
C        -1.14713546744320   -2.61028655426252    0.34673638997742
C        -2.45624938624376   -2.03166729602140    0.43158938935655
C        -3.59614659656189   -2.57325922194895   -0.15770415451025
C        -4.80158158048123   -1.89713615858914   -0.04181649408354
C        -6.02249243423840   -2.48640946862316   -0.67535811311024
O        -6.01257603081663   -3.53173681732490   -1.28174878969378
O        -7.09430039523142   -1.72713867119795   -0.49296484237404
C        -8.32377491588403   -2.18587210181325   -1.05536268559896
C        -4.82507926672463   -0.68847946580502    0.65875872107391
C        -3.65114275306327   -0.21481874401191    1.21363698221453
N        -2.49192575422127   -0.86254809532449    1.11869725405998
H         1.11010833810728   -5.83426786684215    3.37823474625292
H         2.43167694076504   -7.00075470177517    3.84418500237448
H         4.01765707227721   -5.86925882217788    2.43028311080762
H         3.45531084709876   -3.53024921561795    1.91868589670430
H         2.95978016895445   -4.57524382981718    0.60058806859415
H         1.09338314216602   -3.47749155652035    2.75709718724696
H         0.60929517193453   -4.52551906223060    1.42050446112053
H         1.86681073398544   -1.75244489770484    1.10229266047527
H         1.35066505930070   -2.81264735042660   -0.21747242253817
H        -0.98593538397675   -3.52497141645284   -0.21251672420748
H        -3.55159627347487   -3.50149882893446   -0.70559015496310
H        -9.00498964525444   -1.34067919403030   -1.01604518651039
H        -8.16870711093327   -2.51586805084586   -2.08364715032428
H        -8.71274393267857   -3.02042361211219   -0.46969334040700
H        -5.74364872083232   -0.13570995640737    0.76434469879972
H        -3.64194898823209    0.71822835313074    1.75598153217641
Cl       -0.43394531847601    0.50255833574768   -0.63120296709800
