71
 energy: -115.351499367663 gnorm: 0.000388118396 xtb: 6.4.1 (afa7bdf)
Ir       -0.56981800123985   -0.47702357470056    1.50722928821193
C        -1.73715289667169    1.90315907951894    3.89649332912734
C        -0.70729060804774    1.00245765627703    3.31201430937762
C        -0.57397066212730   -0.37872588014998    3.73994287468378
C        -1.46913714609763   -1.04186347480799    4.72993388509247
C         0.70152687468180   -0.85647597849857    3.31696158032217
C         1.36871476221142   -2.09339244889946    3.80698411531222
C         1.28019583431120    0.15385289419303    2.47446798984426
C         2.67460766913932    0.14236571875349    1.94588913001185
C         0.42254321262883    1.33298357024662    2.52453472499311
C         0.87451023963379    2.68023061356113    2.03662978961635
C        -0.10657899025999    3.40849404684146    1.11315072691190
C         0.51444439590204    4.71515663969491    0.62851194046239
C         0.87452888135769    5.60809271623028    1.81332026422873
C         1.83341130590552    4.88414295247111    2.75457021814465
C         1.22125466759537    3.57366014538071    3.24075793895861
H        -2.70971119347497    1.42060130692906    3.93980706509412
H        -1.83377407607195    2.83256261808743    3.34876104104097
H        -1.43676573060279    2.12974015333198    4.92099331818065
H        -1.35188827150158   -2.12110176745360    4.70600558898886
H        -1.21243360816046   -0.69360097835325    5.73096725506015
H        -2.51112045297682   -0.79372703000809    4.54713346920464
H         0.65668409740833   -2.89746765640832    3.97047584281969
H         2.14083050866924   -2.43607322730055    3.12478082864847
H         1.84101643788374   -1.86424465919272    4.76328948145267
H         3.06990737536202   -0.86808110846875    1.90399741984102
H         2.71776667706048    0.57570294306851    0.94978971205837
H         3.31231726559443    0.73466459778847    2.60244118218740
H         1.79334999905262    2.52999548908088    1.46209148965390
H        -1.03710968009911    3.63390477448861    1.63255945035551
H        -0.33999510420948    2.76951052200655    0.26129146370249
H        -0.18820252291328    5.23309987239470   -0.02712764084415
H         1.41464231313497    4.50213671614902    0.04672433865446
H        -0.03545923559844    5.87598458468529    2.35534998608293
H         1.33273219195684    6.53264180093446    1.45652762582430
H         2.06405507298735    5.51972219517601    3.61215962876419
H         2.77005883591371    4.68124063663227    2.23001448410901
H         0.31897159031282    3.79032790327886    3.81169397358812
H         1.92341842669330    3.05583469924008    3.89716568460130
C        -7.06272943052612    0.27246137922100   -0.54163002603729
O        -5.76451580461707    0.56524971038856   -0.04240549298567
C        -4.86554024859548   -0.40343407381415    0.06217430345290
C        -5.03826616259268   -1.74500716273253   -0.29033507168756
C        -3.97297794007675   -2.60865638970469   -0.14553713718568
C        -2.76625048443852   -2.14649609176456    0.37971092332062
C        -1.58432301375221   -2.94306103446288    0.43300359517256
N        -0.48335027821927   -2.38539661568553    0.82269578948107
C         0.70665269789316   -3.12890662585636    0.78351089766617
C         0.77930811764447   -4.38745931290239    1.38117093400445
C         1.95589575508408   -5.11025693164818    1.32656210806139
C         3.05597638024901   -4.58332874309369    0.65923816736765
C         4.34196549664673   -5.36008294217195    0.62740952883065
F         5.11069055646324   -5.10189877450497    1.70948178841512
F         5.10259645552310   -5.07818681312907   -0.44172022381809
F         4.14979716526585   -6.68969018444421    0.62169641625852
C         2.98783502303512   -3.33133218667021    0.05664116448468
C         1.81573271260190   -2.60289777919062    0.12332041290344
N        -2.60791813762420   -0.85721259338717    0.78675728107744
C        -3.61059638591356   -0.02394070603908    0.59199482355954
Br       -3.40481298791306    1.79158394835244    1.00153492251103
H        -7.57046327158126   -0.45382171555004    0.09611493856961
H        -7.59816592358253    1.21879886274277   -0.51793906849120
H        -7.01276050764077   -0.09586459574315   -1.56832851638669
H        -5.97510113783089   -2.09574495112241   -0.69093312915586
H        -4.06098101024671   -3.63988016699234   -0.44633856518498
H        -1.60278257532254   -3.96525955714661    0.07132227460538
H        -0.07537757960884   -4.78887830856621    1.90235026978715
H         2.02094547878034   -6.08194305863317    1.79059196162178
H         3.84533703445402   -2.93530059059217   -0.46463513990274
H         1.73495030308143   -1.63874335231980   -0.35330669494304
Cl       -0.21404575218604    0.21558029500483   -0.74335722975093
