85
 energy: -138.458908867586 gnorm: 0.000583225568 xtb: 6.4.1 (afa7bdf)
Ir        0.52045018846270   -0.41204920024874    1.64071357756061
C        -0.83784604920161    0.86166554716893    4.44770095989435
C         0.38691187364780    0.52149185415962    3.67151279164179
C         1.13986126981083   -0.68504731464716    3.82323951082149
C         2.30218614058906   -0.59105088393265    2.97999058271315
C         3.45589075631663   -1.53694981669374    2.96687899417388
C         2.32114533277663    0.72551434563140    2.39782894268632
C         1.11316520586418    1.39558546217396    2.77858440577577
C         0.79627675279746    2.80161642115006    2.49387043245437
C         0.50941786042730    3.68451070333770    3.53428628171809
C         0.24326083395649    5.01282486428176    3.26971433355579
C         0.25098157895075    5.50073758932724    1.96349568876666
C        -0.02142074972843    6.91907875163263    1.68985333214786
C         0.72106492879528    7.61218316869729    0.73558827875925
C         0.47345123826133    8.94958164320053    0.48647558260517
C        -0.52340269672786    9.61493805131327    1.18145843787756
C        -1.27048107588981    8.93437600348573    2.12930942573336
C        -1.02024867857918    7.59867300577203    2.38445066385575
C         0.53434773298399    4.61339815555223    0.92582497411568
C         0.80581287588276    3.28494972274514    1.18476280338349
C         3.46571737786468    1.31991730999070    1.66229964287375
C         0.87120754594190   -1.71775437920555    4.86211951754255
H        -0.55280781297585    1.12947685514510    5.46603604360914
H        -1.51044103632406    0.00928248248617    4.51027360321769
H        -1.36505347423757    1.70373553884737    4.00717781218964
H         4.10162675913986   -1.32722481523538    3.81993389387352
H         4.03664929864421   -1.41744871933525    2.05714163061658
H         3.12404345152057   -2.56947955144233    3.03479901036728
H         0.52848821519929    3.33691136522301    4.55489490393055
H         0.04892980030107    5.68883243723140    4.08845516212319
H         1.51169890453386    7.10641480801288    0.20088927967501
H         1.06122473595930    9.47628193102535   -0.25139269799491
H        -0.71742199845514   10.65909591441189    0.98495317689640
H        -2.05131862839006    9.44779385228891    2.67129779523290
H        -1.61988473748878    7.07148479907180    3.11189899398687
H         0.52410812128405    4.96501107465891   -0.09473566189047
H         1.00829132064338    2.60778398228199    0.36776687152220
H         3.59969944581762    0.84239212066414    0.69230362297248
H         3.30596725803161    2.38274874170227    1.50201577334616
H         4.37906905204722    1.17162135101544    2.23681420703965
H        -0.16180147078989   -2.05690676106914    4.83718624381193
H         1.54054755871893   -2.56647475991071    4.76166404678966
H         1.04090074460255   -1.26648198760181    5.84064116212250
C         2.70910297012563   -7.73105323973869    7.92689891891448
O         3.59802082070510   -7.51129988947421    6.85120950448770
C         3.13011884602614   -6.91203193351080    5.72596343694300
C         1.81914395521808   -6.48730037126867    5.52823703670769
C         1.45933590587992   -5.88175991216667    4.33780201378273
C         2.38155997422584   -5.69330819437295    3.31323920219071
C         1.99561734424585   -5.04718434621647    2.05048505152158
C         2.49772867221406   -5.49994636068534    0.82864592028313
C         2.13413832231474   -4.88452027833004   -0.35660155783336
C         1.26850210280256   -3.80680471531084   -0.35474127797665
C         0.77404778672025   -3.33282050444539    0.86177811553642
N        -0.06964080376616   -2.21313289247907    0.88668251351375
C        -1.11774633440805   -2.19302361990183    0.11988821234277
C        -1.86588285548193   -0.97542314785435    0.06151785389769
C        -3.00909002874894   -0.78172284750977   -0.72061280606654
C        -3.62154411130357    0.45356322275942   -0.72483921301093
C        -3.06111102654722    1.46857701272636    0.05712057986472
C        -3.65873583464136    2.84997039987604    0.06520227776659
F        -3.39408759864488    3.51385646453846    1.19952171142330
F        -3.18151489235158    3.60715859703857   -0.93938655221178
F        -4.99116819146789    2.83229052808199   -0.07319655100515
C        -1.92398110903688    1.21491562916074    0.80641915147700
N        -1.34244089453551    0.02201516688260    0.82089410624550
C         1.13159339729759   -3.95674266568287    2.05258562209081
C         3.69303860367140   -6.12755778038254    3.51776804761710
C         4.06415404621226   -6.71927735358284    4.70342716642194
H         1.88620373524879   -8.39038027411257    7.63586760121783
H         3.30195218488824   -8.21491195687842    8.70082922201590
H         2.30965272330623   -6.78820506494057    8.31135404811048
H         1.07107736708103   -6.62809853909806    6.29162063205416
H         0.43222047811933   -5.58067018387153    4.19808265068039
H         3.16107332180005   -6.35025442787342    0.80876854894179
H         2.52818932156839   -5.24834213200416   -1.29292241229595
H         1.01162725099544   -3.29844775398840   -1.27057828876383
H        -1.40833822909349   -3.05675628734948   -0.46683551008940
H        -3.39217143360385   -1.59311881694830   -1.31776333490954
H        -4.50714502744574    0.64060498364651   -1.31232306776847
H        -1.47452299116593    1.99794843065068    1.40185847953956
H         0.70765658987591   -3.59936017185899    2.97565442755542
H         4.43503411160940   -5.97540318174613    2.74908912737242
H         5.07816936277174   -7.04727759789377    4.86881632180213
Cl        1.30474141637245   -0.08566465776637   -0.57692696480680
