67
 energy: -91.865772705428 gnorm: 0.000565412436 xtb: 6.4.1 (afa7bdf)
Ir       -0.56078117327549   -0.95286483884111    1.42563660883137
C        -2.09750371525219    0.95496830112174    3.83389280449017
C        -0.87299290857265    0.29040956722662    3.30019421261716
C        -0.52284076547818   -1.06805718448417    3.64282263511715
C        -1.28995897140674   -1.93474478063631    4.58367495584765
C         0.82422262447603   -1.30715977744619    3.20010784570264
C         1.65299990189077   -2.48258379534190    3.58841907858598
C         1.24718197450267   -0.16474354907515    2.47082253667139
C         2.61650231123539    0.07480205358274    1.92860073441328
C         0.19104632095199    0.84139116184975    2.53639297270012
C         0.40331151896167    2.26825975508075    2.10588766862991
C        -0.68399304719823    2.83284029395297    1.18501486449048
C        -0.30519722389580    4.24331074366072    0.74146880475515
C        -0.12317352335693    5.15426901263008    1.95335816774739
C         0.93830281159057    4.58932844688859    2.89394872528074
C         0.57232500324338    3.17488877516349    3.33582436102286
H        -2.97526207753876    0.32500471227057    3.70466941196564
H        -2.27978771068036    1.91631551929096    3.36770060041510
H        -1.96251464497782    1.11399188003283    4.90456854778480
H        -1.04087082756677   -2.98260384424825    4.44213611652787
H        -1.03668741599776   -1.66226748753420    5.60906709472995
H        -2.36118327860430   -1.80596056622871    4.45571640187744
H         1.05474598896000   -3.38778692531224    3.65182624061340
H         2.46190858779412   -2.65243781555684    2.88432178407805
H         2.08679614774480   -2.29214136007209    4.57078763540268
H         3.19716257850989   -0.84275782890013    1.91906474629710
H         2.57001941181021    0.46673402919680    0.91422832451574
H         3.13368152296084    0.80438124948306    2.55192415212077
H         1.33890738113888    2.30104221876488    1.53949027799758
H        -1.64229497116989    2.88259524312941    1.70249618585847
H        -0.78956941279698    2.18434711057977    0.31375238069377
H        -1.08243584524844    4.64497709479523    0.08783467405199
H         0.62403846113918    4.21041276566189    0.16811224580667
H        -1.07218616070970    5.24473635683254    2.48765593577859
H         0.16774960945230    6.15424056981685    1.62530643286848
H         1.03884057479178    5.23251595819115    3.77087835396627
H         1.90295293752248    4.57469697370782    2.38105702466041
H        -0.35546834082463    3.20475129692133    3.90750344231784
H         1.35424396361678    2.77588779011656    3.98495741567602
C         3.60666270681035   -6.54466960100934    1.00275672281641
C         2.48152194216849   -5.56747922233976    0.89747679752427
C         2.70017852557182   -4.26050358776927    0.46876133040797
C         1.66636884369888   -3.34752716980118    0.40561663018499
C         0.37242306182179   -3.73916067312284    0.74642596816464
N        -0.67603855506790   -2.81677532587608    0.65792669494808
C        -1.77867508378198   -3.14465844175005    0.06135419342876
C        -2.80158285267287   -2.14327390151782    0.00761220579333
C        -4.01054377543522   -2.27770166072238   -0.67692919398557
C        -4.89286341483810   -1.21441453005139   -0.69433133717759
C        -4.53990642495385   -0.04274631891481   -0.03265705962040
C        -3.32413167000030    0.02195182762822    0.62511570915273
N        -2.47400643566554   -1.00011439722600    0.65957115442359
C         0.13829375663781   -5.04911022587121    1.16900836884732
C         1.18695456911456   -5.94150047203679    1.25247865389279
H         3.93879688808172   -6.61594254867405    2.03880979959298
H         4.45351834569558   -6.23531173942189    0.39619654575090
H         3.28779066899208   -7.53620570977915    0.68949742118606
H         3.69496950800462   -3.95560374547847    0.18066111265945
H         1.83231481312486   -2.34064673104202    0.05418341455093
H        -1.90648293063411   -4.10898389429598   -0.41587685682710
H        -4.23013757288050   -3.20032823202536   -1.18918166524488
H        -5.83316684881766   -1.28914865153189   -1.21731950672571
H        -5.19620516913069    0.81181880634615   -0.02621051736049
H        -3.01968436787454    0.92195926410251    1.13630965048997
H        -0.85747452043790   -5.34704889599149    1.45985473628318
H         1.00103515865493   -6.94843077888217    1.59443776803402
Cl        0.06464521609534   -0.22527456925518   -0.76730514406783
