80
 energy: -115.399968398574 gnorm: 0.000682000192 xtb: 6.4.1 (afa7bdf)
Ir       -0.53570830027248    0.22250499631178    1.22403150840551
C        -2.02983830133579    2.80681276919465    2.85020713397700
C        -0.90898681973866    1.82522480884085    2.70753423065059
C        -0.79827667751598    0.57729316741226    3.41619597895379
C         0.52285296073732    0.06744130123743    3.22250055244160
C         1.11385186336576   -1.05786478228503    4.00053776018859
C         1.23511615639811    0.99086808369441    2.37593636906106
C         0.37747842356034    2.11852073335437    2.13167328424647
C         0.75922916090125    3.40818104398885    1.56064555872473
C         1.95738682421185    4.01039824437275    1.95272109974516
C         2.29871937380154    5.26491070419201    1.49176444920829
C         1.46861677037418    5.95626672981626    0.61025144860559
C         1.83923650542863    7.28787966049484    0.11099639545302
C         1.61772097624503    7.63206585324612   -1.22139891948215
C         1.96595330380458    8.88478432385094   -1.69186471056410
C         2.53445287190731    9.81667540550818   -0.83858699594305
C         2.75742500047753    9.48595637488194    0.48821899104659
C         2.41661131464201    8.23127287360241    0.95908414005918
C         0.27552490445389    5.35140642839024    0.21669296375142
C        -0.08056586563998    4.10673541456589    0.69204711596023
C         2.68992984795867    0.89693154354585    2.04668866837140
C        -1.79707186224873    0.00295228265650    4.36210955969578
H        -1.62030390865409    3.80505096211900    2.99515658620203
H        -2.65117016563648    2.55505024675452    3.70548426550196
H        -2.65325251583580    2.84312580848318    1.95836502322160
H         1.16304358322017   -0.76214506400019    5.04917688300966
H         2.12120176529127   -1.28444390110123    3.66664935259502
H         0.50238867055492   -1.95446636543276    3.93935447053981
H         2.60830450379901    3.51141027365644    2.65207562317594
H         3.23138887982403    5.70985227262590    1.80498055639185
H         1.19043639948969    6.90529056867315   -1.89700790121254
H         1.79436891011122    9.13645309727574   -2.72845160618960
H         2.80221017068298   10.79647165004509   -1.20614267663035
H         3.19687473027141   10.21061655029243    1.15840194915842
H         2.57871361156095    7.98785851761267    1.99893990258905
H        -0.38933650229692    5.87447485924258   -0.45448948682906
H        -0.99642577181581    3.65257514284312    0.35221447889295
H         2.97402606808876   -0.12835213043130    1.82263480596241
H         2.93176268370959    1.52594268315176    1.19406670433685
H         3.28287634211976    1.22490684993470    2.90118642500265
H        -2.81353608773476    0.26677614965230    4.08584763921222
H        -1.71334164624386   -1.07948700293669    4.40602300753566
H        -1.60238983535475    0.39696071790010    5.36063110338379
C         0.09342345684577   -4.12608841755772    1.87643501436851
C         1.13284255582845   -4.09811371477958    0.75941618414991
C         1.95612960465867   -2.80112144433939    0.73380667480120
C         3.41624087370640   -3.06353738647243    0.33433410567073
C         4.22908555634044   -3.68632247308499    1.46540018585072
C         1.36321970344222   -1.77010004892689   -0.25382888171804
N         0.01320776452373   -1.39673833720453    0.07215044233583
C        -0.95687968330707   -1.95296425962219   -0.56741763449521
C        -2.29485194762009   -1.55283702800141   -0.24542166414079
C        -3.43684200610387   -2.07007634894412   -0.86438438479278
C        -4.66694727444639   -1.56594751593265   -0.51679269528556
Br       -6.26880567634676   -2.20386221684808   -1.31478847786091
C        -4.76064469072013   -0.53990245121932    0.45064359677299
O        -5.97542267158407   -0.08725762594486    0.73612450789557
C        -6.13807788541692    0.96871896542659    1.67221833521419
C        -3.56875231021459   -0.09778405188745    1.02725451356889
N        -2.37740276842040   -0.58600801656515    0.69360616482254
H        -0.52900032041725   -5.01322613471884    1.78706299172957
H         0.58742176915095   -4.16037285453316    2.84462831782000
H        -0.54868420404797   -3.24895020472668    1.84020622581129
H         0.64314720073925   -4.24415803078102   -0.20475943803379
H         1.80499938641768   -4.94524599295646    0.89896335577501
H         1.94316650923661   -2.36347204619795    1.73377406036942
H         3.43990263439723   -3.72018283451290   -0.53739842924574
H         3.89036431058413   -2.12295764194009    0.04637325292630
H         5.24996919082380   -3.86328059077893    1.13657633839798
H         3.80825779365231   -4.63697332288451    1.78143697430320
H         4.26062682481946   -3.02348776399347    2.32696166717245
H         1.97032713320202   -0.86277362125543   -0.23154826522152
H         1.40449481206324   -2.18988409285666   -1.26453115368022
H        -0.78786012585147   -2.68195967349815   -1.35229866555056
H        -3.34672237122014   -2.84293247869129   -1.61000645084868
H        -5.80203227405989    0.66442211773456    2.66516925656663
H        -5.60658372618266    1.86464099117958    1.34543869101522
H        -7.20726282780161    1.16738187277472    1.69504314731772
H        -3.57909084505497    0.67807082783447    1.77639669131456
Cl       -0.69435878721511    1.25547299893476   -0.91889124249889
