69
 energy: -113.989093333622 gnorm: 0.000330929068 xtb: 6.4.1 (afa7bdf)
Ir       -0.48060251510233   -1.10719170538944    1.39720299599340
C        -2.31505756577642    0.74469961308128    3.66027328136396
C        -1.07279810205303    0.01848577088794    3.28401503004712
C        -0.79972708112891   -1.36161915178042    3.61261277649657
C        -1.71606636704744   -2.25364060702784    4.37576827156692
C         0.58796741098673   -1.61159462652171    3.35791392979438
C         1.34437712022588   -2.80060590141178    3.83429681133092
C         1.14608052382647   -0.44018060536734    2.75398483128952
C         2.58796882292927   -0.21396855791199    2.45389937773668
C         0.11224235645429    0.58540913035063    2.74769315172005
C         0.32551832442173    2.00906949544160    2.44466445117294
C         1.32911139235701    2.70170148649542    3.11936088718445
C         1.51425721823215    4.04533336323645    2.85517828019394
F         2.48506691842477    4.70569331553259    3.51738779424476
C         0.74431994728149    4.73937903403869    1.93860476813764
C        -0.24274880788260    4.02415603870356    1.28476366890975
F        -1.01642214467701    4.66093058541801    0.38232790739277
C        -0.47088601080685    2.68200566627420    1.52204634110767
H        -2.36287145515869    1.72381656656498    3.19136357057295
H        -2.31203798467432    0.88961205170329    4.74156924930718
H        -3.20817076269072    0.17451041374364    3.41381484346848
H        -1.49492843370360   -3.30028656562466    4.18858867332188
H        -1.58540868933337   -2.06630711653922    5.44234050723008
H        -2.75492833731902   -2.05902566377453    4.12582623477513
H         1.56554728855223   -2.65562689569302    4.89295566918266
H         0.76315285042719   -3.71445554108445    3.74479534617361
H         2.28944023702556   -2.90716475292764    3.31126190341923
H         3.03664446241575   -1.09567650605358    2.00515903828092
H         2.70912823176602    0.62608745109627    1.77561966818335
H         3.12550576254904    0.00145898035729    3.37773020875944
H         1.94815363047200    2.21634872371765    3.85518356251145
H         0.90743330984824    5.78562356863005    1.74139824455473
H        -1.23010399715114    2.17016942073321    0.95369799769710
C         4.60062050617866   -2.91173062315587   -0.07341476472089
C         3.32184820893130   -3.62122381813896    0.36455569470419
C         2.05230216504004   -3.08750538595666   -0.31982578890810
C         2.10023154998997   -3.39071473793080   -1.82243216300129
C         0.95768358422353   -2.79468253802325   -2.64004541634035
C         0.80985794430662   -3.71560288916815    0.36358628616217
N        -0.33864718887061   -2.84490590816591    0.35973925159359
C        -1.36623467450822   -3.17304015269323   -0.35199682059389
C        -2.46939958888152   -2.25982050020204   -0.40419049577879
C        -3.57699017370216   -2.39919496360930   -1.24449232896974
C        -4.54664341167967   -1.41748244584319   -1.24872885832354
C        -4.37222179115317   -0.31688756625613   -0.40555110681835
C        -5.38284862901729    0.80014188511065   -0.39640819544558
F        -5.19693761042810    1.65041869225464   -1.42138621977817
F        -6.63985131092298    0.34813161899919   -0.49933149082440
F        -5.32343257295174    1.53360555248953    0.72417723563013
C        -3.25213633674552   -0.24308863726018    0.40771202212889
N        -2.32820343753399   -1.19466580764098    0.42157520234344
H         5.42388359271017   -3.20195897605635    0.57532777023055
H         4.48343267754523   -1.83173575158684   -0.01845342530000
H         4.87664073605580   -3.17308138269115   -1.09077784264310
H         3.22435852919441   -3.50095968825126    1.44446790157752
H         3.41675963974054   -4.68948880484379    0.16215288039727
H         2.00124139999640   -2.00186767691107   -0.18534244468277
H         2.13832881046838   -4.47198100333344   -1.97390549899653
H         3.03215423164278   -2.97613957154960   -2.20610161425557
H         1.23087427058875   -2.77825131412231   -3.69277355564534
H         0.75623726740346   -1.77411603804543   -2.32668877256923
H         0.04529882550269   -3.37485182376796   -2.54701859496058
H         0.56713541296653   -4.66014815107952   -0.13088665516493
H         1.05945065520598   -3.92217752372672    1.40616967874329
H        -1.40261080194578   -4.10126246591147   -0.91124767011261
H        -3.65926532124632   -3.26009920637111   -1.88796623299532
H        -5.41783712128786   -1.48895552254666   -1.88150229367971
H        -3.11051028087274    0.60048877898906    1.06740152330811
Cl        0.18543069034939    0.11560286809916   -0.52347746943070
