69
 energy: -119.172834175336 gnorm: 0.000218004172 xtb: 6.4.1 (afa7bdf)
Ir       -0.20159621672148   -0.88243101270143    1.62686153052010
C        -1.81670979862929    0.57033509924051    4.21688258870736
C        -0.52583186426640    0.25488705754711    3.54391380029266
C         0.29517613904641   -0.88378640054182    3.81264615780474
C         0.03283884374364   -1.92070888310496    4.84917843203906
C         1.52753638060756   -0.73115003423986    3.07779815639739
C         2.76037990708305   -1.54308212031419    3.28395474863590
C         1.45168236227587    0.47706327427828    2.33013351427826
C         2.57294109858460    1.10034292312092    1.57727504715048
C         0.15589079010621    1.07381306157409    2.57924761526521
C        -0.23234395320858    2.43016252306541    2.16074433643560
C        -0.52650391542677    3.39204001746861    3.12562446821728
C        -0.84420714824427    4.67423227084959    2.71887057031301
F        -1.12270850226103    5.60091416534896    3.65836508933729
C        -0.88828008091776    5.04520190186583    1.38653879932281
C        -0.59441221630291    4.06602163499765    0.45308540897469
F        -0.63340127798282    4.39142330877434   -0.85474531782289
C        -0.26932148438134    2.77101131271861    0.80963033778049
H        -2.32726919794485    1.38896354409555    3.71852893378198
H        -1.61749821617819    0.86291536158275    5.24821651395757
H        -2.47319327079729   -0.29629372496415    4.24269692734362
H         0.48359568995665   -2.86987235268213    4.57148691368551
H         0.47703835967611   -1.60085451670335    5.79239650121581
H        -1.03275935957721   -2.05981699236542    5.00604119105075
H         3.29101360306741   -1.15713195564212    4.15516578888396
H         2.52531386036860   -2.58776129318444    3.46735431063394
H         3.42183812023314   -1.47549927028715    2.42602416681232
H         2.93490861992754    0.43942729320910    0.79239593416876
H         2.26092045960213    2.03563713857518    1.12176730061294
H         3.39896410073331    1.29496942386249    2.26112370352266
H        -0.48380133071295    3.16242410649763    4.17742706593914
H        -1.13604391079808    6.05054826569585    1.08956993424024
H        -0.06169362394139    2.03619819096568    0.04650095006518
C         0.29676256643270   -7.52592882778536    3.17357944117971
O         1.53298621665568   -7.08861329676085    2.63622414554999
C         1.59491041162133   -5.88482607176830    2.03967292009977
C         0.54014482016583   -4.98683263825492    1.91217133569497
C         0.73142555941410   -3.75459522108613    1.28305558339959
N        -0.33775728950170   -2.85689197159939    1.15202611385256
C        -1.47894148325971   -3.26175996205543    0.68771480257581
C        -2.51185135865067   -2.28386594699647    0.56170149327896
C        -3.78041922484273   -2.51996479947569    0.02081589439026
C        -4.67227842033639   -1.47955154889961   -0.08474532812857
C        -4.28821225744641   -0.19537692008769    0.34187247850418
C        -5.19094195558028    0.91833926625283    0.24468353086985
C        -5.04378927336856    2.25702449700023    0.55370307131302
C        -6.27015360592706    2.87189977081756    0.24586964619312
C        -7.08045923168791    1.87612296084759   -0.22680963724201
O        -6.44244169882548    0.70530437977158   -0.23150591542084
C        -2.99968425363277   -0.04007315558443    0.86952377629886
N        -2.14983162232218   -1.04545117024543    0.98666079858490
C         1.97486627828883   -3.40174500526715    0.76981465735757
C         3.02840968147431   -4.29337843043502    0.87166025238172
C         2.83668599851044   -5.50541808349956    1.49967995993956
F         3.87340817613619   -6.36178093906976    1.60579567977742
H        -0.04070048602421   -6.86435772557706    3.97490246439519
H         0.49589891132171   -8.51509096057782    3.57967301620736
H        -0.46708472555085   -7.59899134052059    2.39579446892208
H        -0.42932604871718   -5.22150374123419    2.32036661075051
H        -1.63134489113244   -4.28402307236563    0.36231168675575
H        -4.03829161626216   -3.51168485201583   -0.31361228152650
H        -5.65757769815700   -1.62875652872266   -0.49643279176948
H        -4.17152635893621    2.73837002394286    0.94487421874514
H        -6.52058636300250    3.90633118770162    0.35694438402746
H        -8.09436185178261    1.88797426915928   -0.57582578116562
H        -2.65848518746823    0.92973419218818    1.19781918974690
H         2.09214829811753   -2.45826348604160    0.26221316478733
H         4.00050070859725   -4.06126428394149    0.46827503031871
Cl        0.27647630880908   -0.50559788650846   -0.67333750016357
