61
 energy: -94.867661960639 gnorm: 0.000681973436 xtb: 6.4.1 (afa7bdf)
Ir       -0.36155442677837   -0.94912060175703    1.48042986812624
C        -2.19038164369377    1.14024561908317    3.62824917188911
C        -0.95041858829001    0.42199264825224    3.22711365217288
C        -0.60900438903419   -0.89795938862976    3.70296174257259
C        -1.45779386411299   -1.72509893680688    4.60943275250191
C         0.78595097624765   -1.11069233603175    3.45453105797059
C         1.61355632901683   -2.13928097324396    4.13662354846846
C         1.26050528445660   -0.01320070851939    2.66475591612251
C         2.68156295303681    0.27829015790290    2.32051068246443
C         0.17942566042311    0.95104553741347    2.55010666887576
C         0.34640070617125    2.33261239077142    2.02051188427464
H        -2.15771160956035    1.28683102504685    4.70896103111274
H        -3.08601802647547    0.56559359560067    3.40295715847848
H        -2.26479779732958    2.11166330397340    3.15179505237875
H        -2.51328886620401   -1.53809395941779    4.43623107973450
H        -1.25981666306709   -2.78519266025293    4.47504054049206
H        -1.23163385292286   -1.46940010027720    5.64514007735829
H         1.06213102018724   -3.06316773936599    4.29032165578196
H         2.54183394282348   -2.33377004135831    3.60780603419142
H         1.87568563685784   -1.74598163192706    5.12091356924589
H         2.76061437066383    0.69975388801068    1.32034087233161
H         3.29707704638267   -0.61494629975598    2.38284366626307
H         3.07256488391941    1.01413074650720    3.02437122283952
H        -0.61166277944728    2.79534818626198    1.80517027079891
H         0.93834676741058    2.32494234639097    1.10894913526487
H         0.86999144247494    2.93836949454706    2.76017312260040
C        -6.74684603350210   -0.16479863614821   -0.69135885538272
O        -5.42330681285031    0.13695571846139   -0.27171570097274
C        -4.56559560172722   -0.84872236758619   -0.03720395113397
C        -4.81638042981321   -2.21930095906371   -0.15258970248455
C        -3.77574026580946   -3.10387474240636    0.04722799723624
C        -2.52174905955597   -2.62692756178220    0.42481710676926
C        -1.33051292472569   -3.41898408226596    0.39862855162705
N        -0.19507925338048   -2.88339040641939    0.69675090412360
C         0.98068624437418   -3.61225907945816    0.29436024098793
C         2.24626167319991   -2.81827343087351   -0.05491669803468
C         3.08841209176621   -3.95135522065775    0.56927249576492
C         4.27930504309440   -3.51760848239075    1.38192137088132
O         4.22567690982368   -2.75214613519966    2.31744418425151
O         5.39291727719992   -4.07248051976730    0.92502301491582
C         6.63601271755040   -3.75267025151542    1.55438221571358
C         1.81965510346133   -4.39260079585631    1.32746348591282
N        -2.30217589582406   -1.30483298653844    0.64956974243861
C        -3.26880583846805   -0.45489840051710    0.36236605844092
Br       -2.93077370371175    1.39366366845241    0.38174439008088
H        -7.27642712424095   -0.74150699646964    0.06967246075369
H        -7.23123360197288    0.79995980193973   -0.82282214166009
H        -6.74238378465227   -0.70591565381163   -1.63988787975078
H        -5.79150481238403   -2.58026148285000   -0.43561543744303
H        -3.92203406852297   -4.16190740751760   -0.09755604508659
H        -1.39224058337979   -4.42278863085289   -0.01211548650958
H         0.71501695137922   -4.27654944577591   -0.53399433838645
H         2.31221743502369   -1.90274504454485    0.52752864501249
H         2.40533789781299   -2.59620955703704   -1.10543198403800
H         3.41459658124556   -4.68287837017229   -0.16883474710448
H         7.08975409192854   -4.68419902944568    1.88922296653221
H         7.27449411840250   -3.27153912968962    0.81438491541307
H         6.46543131084243   -3.08557817387286    2.40006920849598
H         1.77459348844303   -3.94147521308484    2.31170048974298
H         1.63527698132093   -5.46133173647613    1.38959087833630
Cl        0.23569936448306   -0.20006282123264   -0.70781678976145
