74
 energy: -122.027931234422 gnorm: 0.000979127831 xtb: 6.4.1 (afa7bdf)
Ir       -1.39996779886446   -1.33069138962613    1.84373483992278
C        -1.17751530174784    0.62612229994241    3.91897963484713
C        -0.28576524412196    0.20620315854998    2.77642016540699
C         0.45847842485500   -1.06419449604017    2.84104035395666
C         0.40699137647246   -1.99147295985591    4.03339002651793
C         1.64682532236121   -0.87823444680881    2.06024597532172
C         2.67781082168852   -1.90205747242274    1.80095986167835
C         1.65749541693436    0.43155785430208    1.53992610781151
C         2.72303239952287    0.96322190183618    0.64656500315195
C         0.49008488868853    1.09390713095907    1.92896466746332
C         0.10517727972760    2.45161977811038    1.45339112936983
C        -1.36144455773699    2.56632527085639    1.02135404378687
C        -1.61559082456786    3.95325720698206    0.43819712199899
C        -1.29549541167648    5.03266868597990    1.47004470624080
C         0.15007281111281    4.90975420025301    1.94514531082815
C         0.41776643500743    3.52141294956218    2.51878818046392
H        -1.95022869555233   -0.12799004251341    4.12347306803733
H        -1.66032676471625    1.57720514285374    3.72268129235999
H        -0.57944109247196    0.72189352700751    4.82645721610420
H         0.89063066985403   -2.93811867603913    3.81018023072109
H         0.93472250419478   -1.53339428045579    4.87012367217771
H        -0.61582035907518   -2.18761610026562    4.36236684490635
H         2.36634429507533   -2.88243782459757    2.14805111129794
H         2.89642919564710   -1.95609380174752    0.73509349315260
H         3.60593818759143   -1.62857918318335    2.30485750638803
H         2.47927386589909    0.74932764238852   -0.39458968685069
H         2.82987594484421    2.03837176934430    0.75860324745907
H         3.67663454723716    0.49378387801139    0.87150734333393
H         0.71719999899979    2.67951327347620    0.57548485435050
H        -2.02504386642605    2.41871631607586    1.87195153346281
H        -1.57532158850995    1.79684376433471    0.27860405246029
H        -2.65771393327565    4.03964380515792    0.12539274807548
H        -0.99217042399676    4.09934480431001   -0.44651396699074
H        -1.96814326671184    4.93185931627889    2.32497375332255
H        -1.45793776888371    6.02128265388017    1.03634106251856
H         0.35571867453802    5.66464970440731    2.70694504470971
H         0.82341186342782    5.09487798055066    1.10502945480117
H        -0.20486271741050    3.36598539120641    3.39972808504977
H         1.46176195576025    3.43892939596922    2.82514509965343
C        -8.79887587361879    0.09676714999855   -1.87791191359829
O        -7.60188916650469   -0.03450482007664   -1.11151790144321
C        -6.86075148998991   -1.11237515204478   -1.32926657805929
O        -7.13058874554812   -1.98600104306023   -2.11945138934562
C        -5.63333908733583   -1.13257356025868   -0.47277963138768
C        -5.34925910234226   -0.12593300529364    0.45285086729602
C        -4.18557200933116   -0.21506519393314    1.19542224622329
N        -3.33123041490312   -1.22635776805765    1.07881379104723
C        -3.60490850240391   -2.21845379661865    0.19654912639990
C        -2.64114988764371   -3.28423228484473    0.18096200705858
N        -1.75763952688886   -3.28904256301740    1.12568057997254
C        -0.70728886970145   -4.21262132011472    1.13720852938387
C         0.11315186518230   -4.35961000914551    0.02316059949264
C         1.21791435907764   -5.19301384221153    0.08653893425823
C         2.12612597310618   -5.27876569819085   -1.10322191605449
F         1.45948225885820   -5.25692681668238   -2.27121890580891
F         2.88327336646266   -6.38698278430329   -1.11714078472420
F         2.99085816613720   -4.23922362346092   -1.15623836717908
C         1.50720442911689   -5.89869778591924    1.25241653429319
C         0.68207572480265   -5.77240744409336    2.35011550380513
C        -0.43273333241052   -4.93457130919027    2.31519778685588
O        -1.21130155107991   -4.86195438153432    3.39952412092166
C        -4.74636425397965   -2.19233399927654   -0.60104231195116
H        -9.45665529898679   -0.75521908340839   -1.69859787207456
H        -9.26454866401618    1.02086324411581   -1.54785768979726
H        -8.56119232287164    0.14139349785074   -2.94194815145148
H        -6.01962141509055    0.70767164547165    0.57828786959515
H        -3.92468932991965    0.55544025067684    1.90618987445769
H        -2.68368908107369   -4.05550145468584   -0.57956707269408
H        -0.09163895489730   -3.78145510002281   -0.86445369891338
H         2.37074238205918   -6.54345094169695    1.29234636369315
H         0.88163175856284   -6.31822776992851    3.25773616754066
H        -1.99865657581495   -4.31815960890521    3.24431344804673
H        -4.94782232518935   -2.98022920485389   -1.30979564170213
Cl       -0.62748976556688   -0.86942055215885   -0.28747771342073
