82
 energy: -110.134391071590 gnorm: 0.000578200377 xtb: 6.4.1 (afa7bdf)
Ir       -0.75340092361772    0.13087690952600    1.62336188114118
C        -1.54863458251541    2.60821492368682    3.98056610994674
C        -0.71558253081546    1.47651522870662    3.47819217976653
C        -1.02760300286270    0.09647121688470    3.81902819276428
C        -2.22474655126511   -0.31922558206829    4.60519556776527
C         0.11042701121940   -0.70352562334213    3.52680982786706
C         0.32700734851403   -2.11885166730406    3.93673869042158
C         1.06907300277848    0.13796288932152    2.86593657440083
C         2.46925430404163   -0.26140887674022    2.54255850973380
C         0.58076385503433    1.50688453843505    2.90982289481085
C         1.46450540923235    2.68543109364514    2.61079736496550
C         0.88586440249071    3.72648290217606    1.64839143395983
C         1.92874759107805    4.80524323802686    1.36883814938127
C         2.36167051242176    5.48274752128247    2.66689401863177
C         2.91203939304463    4.45221953409623    3.64940064754490
C         1.87676581690746    3.36594046640038    3.92807642606540
H        -2.59828721937421    2.45114378890543    3.74748280958905
H        -1.23032959597468    3.55889804914388    3.57053445134737
H        -1.45085596266273    2.65023282140371    5.06646928226905
H        -2.42000149028254   -1.38239766146965    4.49556176379544
H        -2.05101274326146   -0.11200471695808    5.66180327273979
H        -3.10724884723752    0.23347797103579    4.29354907697715
H        -0.61570106469357   -2.63880166521180    4.08156861119738
H         0.92126211450045   -2.66212723542692    3.20595811172139
H         0.86889127379206   -2.12786701712625    4.88292785571278
H         2.54428492388322   -1.33541575446579    2.39960003339439
H         2.82173411782699    0.23178521959623    1.64051138107681
H         3.12535543624663    0.02323453113153    3.36608685686344
H         2.37501853825903    2.29979888553700    2.14291708505680
H         0.00488990129531    4.20104445262011    2.07814298630893
H         0.59608516283742    3.23780124611449    0.71798203407272
H         1.51448191747205    5.54685887939039    0.68310035677987
H         2.79954871757375    4.35824582777940    0.88389253426379
H         1.50542883342905    5.99272175116877    3.11553646201772
H         3.12223811464927    6.23740342988299    2.45636715304264
H         3.19098563451277    4.94115355093312    4.58539045166785
H         3.81382237404708    4.00025461774754    3.22966864007872
H         1.00360954592775    3.81344591610506    4.40325209114019
H         2.29144401971166    2.62538305061236    4.61490067024371
C         3.51183553891580   -5.22651709641932    0.03983614061013
C         2.36178567650424   -4.28997461513374    0.22301961097919
C         2.46653690514044   -2.95162802826833   -0.14800217738035
C         1.40982953794422   -2.07860111749109    0.01336497510139
C         0.20063457627259   -2.53472600937618    0.53603151931334
N        -0.88218677867751   -1.66070682704538    0.69852366280734
C        -2.06485450440329   -2.04611094467408    0.36425850844601
C        -3.18780422467301   -1.18465669537829    0.61036754361488
C        -4.47993750992805   -1.66182935838499    0.46451679155421
C        -5.52857326913894   -0.82302486864859    0.82895209509261
C        -5.24477728769651    0.46097483437451    1.21226098862332
C        -3.90910703694919    0.94493301969798    1.21992008359760
N        -3.64791948615110    2.24794001410903    1.46910034329759
C        -2.59637266528713    2.94711176832032    0.75053101493299
C        -3.16935168525314    3.55811221278794   -0.53052055518536
C        -4.30148118086814    4.52695173821368   -0.19688530897518
C        -5.36094901001540    3.81869615560885    0.64601315987931
C        -4.69150663053303    3.18118645427098    1.86563534900482
N        -2.89071117520680    0.07646614814991    1.01501859227306
C         0.08385501428156   -3.87680127281006    0.90817554865307
C         1.15481532205047   -4.73405659384225    0.75671414135592
H         3.50114973742427   -5.62635934119330   -0.97455475398859
H         3.45031744398648   -6.06332040621389    0.73087392623321
H         4.45899183994461   -4.71211028183633    0.18322224311230
H         3.39270752940632   -2.58791719305606   -0.56683044430560
H         1.49590991447185   -1.04815463652213   -0.28929780560180
H        -2.23252448557402   -3.00973161064662   -0.10539218386799
H        -4.65272856061445   -2.66344630152514    0.11051765872896
H        -6.54933449957607   -1.16885817356734    0.78752213133374
H        -6.05517273124004    1.12282494575160    1.45996749468765
H        -1.78808577492454    2.26269442794045    0.50826820614708
H        -2.21193073417617    3.74177445629642    1.38958405676254
H        -2.37127682322277    4.07331680967157   -1.06480179621859
H        -3.54083207478690    2.75896293153741   -1.17549986240667
H        -4.74789233722709    4.91276184695145   -1.11457375423629
H        -3.89953007320375    5.37647753915717    0.35988327678697
H        -6.12223243479026    4.52722235056410    0.97450220957886
H        -5.84816123693414    3.04979282225018    0.04345018677639
H        -5.41564108503450    2.69551021338444    2.51819777596760
H        -4.20069308508396    3.96877170603302    2.44487400074109
H        -0.83561824206392   -4.23343613153690    1.34736495428533
H         1.05437172116828   -5.76495321858482    1.06120549255171
Cl       -0.09926389242718    0.91682067606047   -0.54703248115885
