77
 energy: -126.517293528238 gnorm: 0.000707467323 xtb: 6.4.1 (afa7bdf)
Ir       -0.47106569865849   -0.58794171861375    2.13145877380657
C        -2.67292768085379    1.20541327280899    4.08639257390437
C        -1.36464742872973    0.52226303415093    3.89717851914595
C        -1.08136263377492   -0.84199818586164    4.26952239652383
C         0.34340800466411   -1.03119792632572    4.21092488673330
C         1.06627543460302   -2.19402174178240    4.79566855349625
C         0.92818582375493    0.16848467632086    3.70088275948385
C        -0.14045837154923    1.14000286896506    3.51842348129081
C         0.04938250346392    2.56987380398690    3.23291322852071
C         0.85649380179798    3.33282301971628    4.07520494484278
C         1.02427915362549    4.68385388611356    3.84838876302200
C         0.40566295587007    5.31043582500209    2.76782101974917
C         0.60317764300460    6.74562491020968    2.51674303530487
C         0.81162517493837    7.21592584714572    1.22181880627987
C         1.00770446099230    8.56440095420975    0.98647742140238
C         0.99124538380204    9.46504714036015    2.03907877191607
C         0.77929941826586    9.00854615333463    3.33002613154099
C         0.59051042762762    7.65963899278993    3.56854236512729
C        -0.39645789984796    4.54260523393285    1.92576068429090
C        -0.57762877783629    3.19417764224555    2.15830557088207
C         2.38168796448036    0.48852690295890    3.63064763160380
C        -2.05090668781466   -1.77330791755834    4.91188830053387
H        -2.82803416709627    1.35495843055092    5.15612058424095
H        -3.50347696144114    0.60700052323913    3.71832327679230
H        -2.68010973360502    2.18120603935191    3.60744447709498
H         2.08515180267965   -2.25873314947499    4.42963664744042
H         0.54646176043207   -3.12798752798011    4.60277417157894
H         1.10602172227939   -2.05751534793765    5.87729422886319
H         1.33775431257513    2.86865679031336    4.92162132250343
H         1.66110224615048    5.25989116137428    4.50289048686242
H         0.84305085550441    6.51761420761717    0.39797942579817
H         1.17604866636504    8.91472813399067   -0.02152190995231
H         1.14250813838437   10.51836005038682    1.85369487636552
H         0.76047153211112    9.70806322900847    4.15316713866962
H         0.41064856966626    7.31319652981174    4.57573501888135
H        -0.89174596399279    5.01139120708127    1.08864029079343
H        -1.17621097285347    2.61194407979895    1.47395961259506
H         2.96486580014012   -0.36436304251083    3.29773181844416
H         2.55484518626507    1.31918690624122    2.95162455053119
H         2.73516128358686    0.77216476461454    4.62253640268940
H        -3.06133745938566   -1.59673977118052    4.55537837353889
H        -1.78533468167247   -2.81026920519635    4.72809074612581
H        -2.03888999714088   -1.60803149482775    5.98996962956247
C         5.67122829018377   -2.24157289556738   -1.55801472857769
O         4.86043887332743   -2.79845608415828   -0.52326044611076
C         3.59964284607442   -3.10005747430869   -0.81940870733542
O         3.09574466676725   -2.95506491570020   -1.90585910278585
C         2.87820660454129   -3.61437585169524    0.40768719101665
C         2.33185907706745   -2.50204426323097    1.33052710888951
C         0.95796774796098   -3.20164998816163    1.32546506442185
N        -0.18220740044552   -2.34631642979525    1.13511432054345
C        -1.04811664762982   -2.63100753107473    0.22012596327231
C        -2.12819172084045   -1.71283191343001    0.01346523857890
C        -3.08129179991883   -1.83936279360183   -1.00108176848716
C        -4.04152424019290   -0.86050034802269   -1.14888901450570
C        -4.01155000239006    0.22643584446366   -0.26997348174399
C        -5.01921069048536    1.33577056178926   -0.41821936698504
F        -5.07018533269923    2.13481408208446    0.65591094745264
F        -4.74079558673736    2.12551525096187   -1.47098040520861
F        -6.26072680639797    0.86778006658428   -0.61353099547442
C        -3.04233714581863    0.28833623039441    0.71814218565374
N        -2.12713837180530   -0.66193624129395    0.86992701296583
C         1.44252356651309   -4.10323191080962    0.17075084332006
H         6.52281309136896   -1.78491206480364   -1.06120152421825
H         5.10409035029899   -1.49957868073320   -2.12223967741011
H         6.00283734457739   -3.02926181987944   -2.23647569402740
H         3.52426930366561   -4.31621522838508    0.93240516025119
H         2.82901894991904   -2.41700134650977    2.28967607184376
H         2.28973583876382   -1.53060423747364    0.84328195889619
H         0.79338250528262   -3.76913849228816    2.24555390260938
H        -0.96840664360090   -3.51826282875177   -0.39545535932866
H        -3.05081441162432   -2.69023473509456   -1.66224578646737
H        -4.79576393252318   -0.92159636524349   -1.91814877269696
H        -3.01331900556716    1.12195389669623    1.40484969377487
H         1.10875143307949   -3.76994920320090   -0.81017813896534
H         1.26726346583043   -5.16889174887506    0.28329031200111
Cl        0.58037687268472    0.47641427073861    0.27347420602925
