78
 energy: -129.637811432400 gnorm: 0.000456171198 xtb: 6.4.1 (afa7bdf)
Ir       -0.14936514776512   -0.58716271201983    1.49502944793458
C        -1.56801956473506    0.86174695823358    4.17242412425136
C        -0.34665521614556    0.65845202456947    3.34486781344108
C         0.65679211203094   -0.33490300400674    3.57320638066958
C         0.68470148696217   -1.31406541162547    4.69471675825795
C         1.73333496175467   -0.10585995916044    2.64259778247354
C         3.07949893104825   -0.74361340879471    2.70557127315515
C         1.39974489164884    1.03281770159042    1.84688767415462
C         2.30894958521115    1.71362684301199    0.88770052848660
C         0.08813293064828    1.48249728115502    2.24376236495265
C        -0.53455889997718    2.73062654040492    1.77951307602403
C        -0.94509121859822    3.69574141762319    2.69770057947900
C        -1.48255008305104    4.88064728289912    2.23097089827100
F        -1.87208482965995    5.80979299107014    3.12704070926782
C        -1.63542083478311    5.15253726919148    0.88294712424935
C        -1.22095588074238    4.17369383253375   -0.00390518180570
F        -1.35759496391153    4.40104338827898   -1.32553209013903
C        -0.67669313177049    2.97411803464038    0.41314056918755
H        -2.30865365995200    1.45467352005854    3.64369535053050
H        -1.29498358639267    1.38555020699829    5.08893542688728
H        -2.01111310773560   -0.08836153110478    4.45973516147978
H         1.18048763113641   -2.23471973068175    4.39561558494808
H         1.24497904583360   -0.88631482252864    5.52671261571646
H        -0.31787676108664   -1.54379141062690    5.04338927165839
H         3.70285229682954   -0.17891177550211    3.40018864264898
H         3.01672914513138   -1.76735180658105    3.06235966012847
H         3.55975194428125   -0.73764670447419    1.73206224990028
H         2.31940035506668    1.19691949053823   -0.07176198281873
H         1.98249171435819    2.73606056434704    0.71458930020916
H         3.32338065602019    1.71744051205829    1.27965064421726
H        -0.82514258025173    3.55119380989065    3.75822542935139
H        -2.05354439898260    6.08380753247923    0.53971248805067
H        -0.38333318512105    2.23433240031093   -0.31557630344213
C        -8.29812384967123   -1.21668376790129   -0.44903196108108
O        -6.94006971968100   -0.95857073550510   -0.09085711241160
C        -6.11125243483790   -1.99241943480460   -0.08092981999329
O        -6.41938774996023   -3.12869211255339   -0.35034383051131
C        -4.72240933242649   -1.59392503237764    0.31762792070078
C        -4.36317644651480   -0.26301693894626    0.54344532467838
C        -3.06142880277103    0.02444378048528    0.90923901279525
N        -2.13697138781940   -0.91832173563690    1.06948473103262
C        -2.46755362092656   -2.21385681697105    0.83917795417083
C        -1.36822264912272   -3.12166410841736    0.99996151223719
N        -0.22050218795816   -2.59569335440493    1.28650800015259
C         0.90936115951662   -3.40707828761114    1.46430328802769
C         2.07651303357301   -3.10597554687689    0.76347689125898
C         3.18570745371427   -3.91536155958255    0.92441219792604
C         3.15038649275465   -4.99305468509680    1.79232653811873
C         1.99093824205172   -5.29820803041057    2.50954677060444
C         1.95748904337171   -6.43627426087229    3.43808508394909
C         2.62892644057039   -7.61842609404948    3.14008184367954
C         2.61512851930687   -8.69425377582525    4.00857779167797
C         1.92586434956153   -8.60770158961567    5.21496068000455
O         1.85419371171637   -9.59201847091506    6.14848549753936
C         2.54678381353244  -10.80095621585011    5.91828319000911
C         1.24443513633119   -7.42585759157190    5.51976761080523
C         1.25887699589627   -6.36352285643121    4.64506713959522
C         0.86553534743695   -4.49919729338448    2.32753514076901
C        -3.75683536852556   -2.58048328171610    0.45962085161795
H        -8.35550003825482   -1.55404864674811   -1.48498990963960
H        -8.82429509640917   -0.27520213583116   -0.32081158675644
H        -8.71766928720498   -1.98842735574910    0.19795529730426
H        -5.08703710282515    0.52708430249043    0.43481210746488
H        -2.74845538089271    1.04457262222091    1.07711791150080
H        -1.49034345134342   -4.18798842751115    0.85171475134833
H         2.08126153163442   -2.27089625907025    0.08103610632339
H         4.08809919511920   -3.69975960648983    0.37410935063764
H         4.03449157989433   -5.59445310211848    1.93328828502793
H         3.15493468922950   -7.71678480022956    2.20244009681498
H         3.14334066366232   -9.59374530314479    3.73524600164324
H         3.62177551716645  -10.62952858563765    5.80849914022515
H         2.16397403354074  -11.31834756252535    5.03338232888834
H         2.36694589798840  -11.41335413045876    6.80001503329635
H         0.71469924160957   -7.36963005553863    6.45743232357146
H         0.74296900764334   -5.45556993979520    4.91649869955749
H        -0.04499821767513   -4.71468169676241    2.86502897195923
H        -4.00973613966301   -3.61259584788663    0.27281069937276
Cl        0.12377752983753   -0.44095999755849   -0.86108422716770
