57
 energy: -83.471557605908 gnorm: 0.000449653017 xtb: 6.4.1 (afa7bdf)
Ir       -0.79262280139779   -0.78535876343211    1.43797454033809
C        -2.17587022971018    1.31647357553126    3.84211995627184
C        -1.01936179688619    0.54684784777758    3.30213244797733
C        -0.73177751350960   -0.82455864071912    3.65691281953903
C        -1.52348472831823   -1.63379762329475    4.62807180239807
C         0.59708523115887   -1.13253643444485    3.19531576225398
C         1.39705418718396   -2.32119529319330    3.60032217787705
C         1.05524551506089   -0.02634127418566    2.42900796438473
C         2.41803520140306    0.16611987589602    1.85850221621835
C         0.05260680735983    1.02575239030257    2.50968566675412
C         0.28800775441958    2.41993033320419    2.03177558328574
H        -2.02124754176547    1.46791532812028    4.91098455297772
H        -3.10960448454247    0.77377140515527    3.71507417617137
H        -2.27043137109917    2.28806817289069    3.36830852406674
H        -2.58647721503118   -1.42958980163230    4.53234886263350
H        -1.35321011760618   -2.69729901744231    4.48452602520167
H        -1.21890758039864   -1.37675034368353    5.64343061909482
H         0.76643853332032   -3.18804662312872    3.77677239634993
H         2.14084487545507   -2.57641478785454    2.85082162788662
H         1.91788675525913   -2.08542912366493    4.52944401908403
H         2.36026113930090    0.64543218471345    0.88369004986165
H         2.94000138071315   -0.78058516378680    1.75599196844104
H         2.99717031066749    0.81274582766870    2.51834890270215
H        -0.57953857656122    3.05293137954593    2.19484297360363
H         0.53594462082372    2.42748761164690    0.97133897525643
H         1.13279204689009    2.84534353648351    2.57347435384951
C        -2.06898612115473   -3.11706027241088    0.41591216067479
N        -0.90712796918569   -2.69006053891512    0.80118996151578
C         0.19142230564080   -3.55871065201121    0.82246340418230
C         1.40713806428655   -3.12743204919396    0.29163600647832
C         2.49565507290946   -3.97940029542374    0.29051427692206
C         2.39022212473802   -5.25061917814280    0.83629558228925
C         1.18540595717532   -5.67477168980311    1.37656741710934
C         0.08389293965599   -4.83964830216270    1.36592662299792
C        -3.12286830274226   -2.15269304513932    0.35656853868419
C        -4.42496029301341   -2.45989467882161   -0.08718060940842
C        -5.34895302627328   -1.45910932191487   -0.18041421471431
C        -4.95945282724223   -0.12974871649941    0.09397095973654
C        -5.83707578549828    0.96071105122137   -0.06422698283073
C        -5.40459841394922    2.24236910174443    0.14689173925577
C        -4.07091751224524    2.48347918687284    0.51295154040754
C        -3.19978542817564    1.44466132338308    0.70271589019773
C        -3.61965294917649    0.11418556484362    0.51868709914655
N        -2.75302855353253   -0.91175447159463    0.71018557006171
H        -2.22139677063850   -4.13535746405630    0.07796002551038
H         1.46838983783166   -2.14139829471901   -0.14276248517579
H         3.43058960376104   -3.65031288264459   -0.13605029282404
H         3.24541122489417   -5.90817582422069    0.84283337316362
H         1.10338910525707   -6.66038440091573    1.80799240292306
H        -0.84993628278408   -5.16105443500084    1.80201138340922
H        -4.66527058422762   -3.48019928874568   -0.33681476300386
H        -6.36325782053962   -1.66019629720729   -0.48879825036298
H        -6.85186046327618    0.76408365283831   -0.37466057565678
H        -6.07896379005094    3.07408419798757    0.01506135697905
H        -3.73312683493743    3.50060227091771    0.63678350623181
H        -2.16410002335615    1.62302139769551    0.94077995945118
Cl       -0.19866288633001   -0.03924522643432   -0.75580856782515
