75
 energy: -125.508482685975 gnorm: 0.000285345139 xtb: 6.4.1 (afa7bdf)
Ir       -0.64297784785433   -1.12658308488267    1.56636536050586
C        -2.54294195186879    0.91621186893573    3.57657149671130
C        -1.23753094980132    0.26096211233759    3.28849885705269
C        -0.83872842683474   -1.01834002187137    3.80258076034303
C        -1.63175310229891   -1.85483333167862    4.74918235388574
C         0.56474035930109   -1.18488232155616    3.52807965202609
C         1.45409696366863   -2.15815113865604    4.21798886091959
C         0.99360938211503   -0.09836726125024    2.71735226659169
C         2.40942090366713    0.19414899252634    2.34979712766879
C        -0.13221928233203    0.81485367990385    2.57488520412850
C        -0.01822595269838    2.19563980238835    2.08116563739691
C        -0.36256650219255    3.25029601353741    2.92596628846406
C        -0.20194967090916    4.54797835882459    2.47954957828333
F        -0.53497607590754    5.56127922219147    3.30575050850415
C         0.28807705768808    4.84973629759198    1.22154183757728
C         0.62030636351899    3.78097723728887    0.40708628614840
F         1.10022299144500    4.03833968437098   -0.82675422718736
C         0.48045445929882    2.46610480620768    0.80791260290788
H        -2.68781309401961    1.79814427964247    2.96063327805304
H        -2.56011713913567    1.21169880650426    4.62633703821134
H        -3.37324106663541    0.23237547686259    3.41585101535334
H        -1.39562009419051   -2.90925789505823    4.63521467087454
H        -1.39071622650831   -1.56383215986244    5.77214897890201
H        -2.69737914025066   -1.71306515783461    4.59813815647339
H         1.68401987184681   -1.75686968728251    5.20703529079271
H         0.96885997216663   -3.11959548279734    4.36337265070230
H         2.39041546859401   -2.27970124844444    3.68279061118276
H         2.82569950785498   -0.60299086770109    1.73727973673464
H         2.47824329413858    1.12317190049143    1.79200152365644
H         3.00959441869613    0.28232075594603    3.25519434855158
H        -0.72352460910495    3.07524324894655    3.92589062535931
H         0.40822394564370    5.86816626851173    0.89194881775931
H         0.72729748760889    1.66527391460676    0.12706086326478
C        -8.08595026172278    3.97844731973084   -0.60872124464009
C        -7.48281719928043    2.60036397640742   -0.39003306157839
O        -6.07776385251935    2.76285918017242   -0.21740324843360
C        -5.30482471804583    1.69671468377270   -0.00090558728185
C        -3.91956106829165    1.97492999455569    0.15506229556043
C        -3.02495598359524    0.98495628995983    0.42202494908977
C        -3.44588067101716   -0.35946020090360    0.52653153593083
N        -2.55846073482946   -1.34014477880017    0.79075155480502
C        -2.94027933999715   -2.62342162815985    0.66538831471981
C        -1.85038570396900   -3.54432292177656    0.65252354575285
N        -0.66529708423419   -3.09264608884262    0.93178234622827
C         0.43908479096028   -3.82763720495956    0.47010547434898
C         1.52692823749319   -4.14848118364450    1.27959957546111
C         2.60861990037388   -4.85717495311559    0.76227758389760
O         3.68403915525026   -5.25512815548275    1.46775992014470
C         3.76297072930529   -4.96648799185015    2.85220693074791
C         2.61484367120073   -5.21205441881819   -0.59371161755647
C         1.55212864296372   -4.88757212846437   -1.40696253106915
C         0.46595161466805   -4.22077209671920   -0.87181838098080
F        -0.57981614346245   -3.92018548673882   -1.67559288409243
C        -4.27928731082587   -2.99153030899926    0.42831284550147
C        -5.22301388754072   -2.01447330751806    0.29146992738667
C        -4.82494198774915   -0.65729815120883    0.29725423146554
C        -5.73430076254527    0.38432169992671    0.06420991085067
H        -7.65071187026625    4.44165819421147   -1.48979607941262
H        -9.15899102871602    3.88897894807874   -0.74853167031351
H        -7.89124480202129    4.61426862100684    0.25031464379315
H        -7.90985345815881    2.13385651288800    0.50604663002549
H        -7.67557900644150    1.95808535150920   -1.25786487322703
H        -3.60270128419429    2.99978940514087    0.04873298528350
H        -1.97208886920892    1.20312331194157    0.50483692663038
H        -2.00421005374832   -4.56015413648716    0.30481816750731
H         1.49091791443051   -3.85873919851520    2.31328448946345
H         3.84352071876165   -3.89074144327726    3.02325023937904
H         2.90661983378905   -5.37418893868452    3.39371165113689
H         4.67341027527035   -5.45314193522694    3.19549380499813
H         3.46682750484683   -5.74620476421681   -0.98063990443442
H         1.54356189500489   -5.15022368250609   -2.45237191561530
H        -4.53074199623611   -4.03725595396536    0.36427682236154
H        -6.26268040314084   -2.26034387830750    0.14185125357086
H        -6.76947101734810    0.12536195463454   -0.08710153160613
Cl        0.22001930008306   -0.70221557549984   -0.61135208359191
