60
 energy: -86.645738004042 gnorm: 0.000653308037 xtb: 6.4.1 (afa7bdf)
Ir       -0.57329778492452   -1.00598779698137    1.18474757180486
C        -1.96180166946298    1.13423433080720    3.54796263836085
C        -0.80782224662123    0.34383693804382    3.03249114262246
C        -0.54536579323693   -1.02953746423218    3.40209489525684
C        -1.36418404490320   -1.82249276242776    4.36445817318728
C         0.78665730523617   -1.35872156973015    2.96715705684436
C         1.56167215750547   -2.55625220196143    3.39437944869044
C         1.27233469260483   -0.26558844835134    2.19884107851613
C         2.64762368197427   -0.09452009719182    1.65119475658977
C         0.28424359373640    0.80145944182851    2.25625243627376
C         0.54608481826443    2.18789878094972    1.76901992779677
H        -1.82374153850395    1.28955110380227    4.61855364032230
H        -2.90210868641000    0.60642316812918    3.40676124797144
H        -2.03229035668670    2.10453971051694    3.06710672411997
H        -2.42200524229165   -1.59947203062961    4.25471908930610
H        -1.21127027726978   -2.88907202790921    4.22367669544370
H        -1.06798840629410   -1.57015316322908    5.38337291984559
H         0.91585137272022   -3.41470087252813    3.55736228851120
H         2.31963068675735   -2.82322799825492    2.66354733018885
H         2.06209873569913   -2.32447055735782    4.33564757919011
H         2.61305839568104    0.37682309839521    0.67146266339696
H         3.16009508447640   -1.04806921331926    1.56644870231516
H         3.22241917547085    0.55111691980797    2.31585065869577
H        -0.31215986653322    2.83593781334835    1.92166761166578
H         0.79999634818071    2.18285528409422    0.70990045341312
H         1.39459861552742    2.60398884158487    2.31204725341254
C         3.76812012456909   -6.43245842933699    0.61934056818450
C         2.59378180385866   -5.50962126042951    0.62743617634652
C         2.69859755670404   -4.22188622890101    0.10440238410474
C         1.61900263242632   -3.36322229686090    0.10049920243300
C         0.38798578807010   -3.79003868983767    0.60184656796722
N        -0.70128938680662   -2.91590245634093    0.56764652884737
C        -1.87092597958735   -3.33862603606467    0.19841788613808
C        -2.91415222506155   -2.36468134591100    0.12241439992922
C        -4.22025913507019   -2.66567392108502   -0.31440821876835
C        -5.13265370030595   -1.65641428125667   -0.42667085252035
C        -4.72871215546840   -0.32651253103746   -0.17589343891940
C        -5.59561189205892    0.76959347372203   -0.35126428945335
C        -5.15046676191192    2.05015765402618   -0.16073031262175
C        -3.81421601846951    2.28372269710661    0.20023830064211
C        -2.95288403241332    1.23959062374711    0.40535565676364
C        -3.38619451992126   -0.08947789806307    0.24302795124163
N        -2.53043837340422   -1.12119032725964    0.45111871049662
C         0.26992293552511   -5.07903042975009    1.12523405320460
C         1.36585601051071   -5.91774501151012    1.14302120604663
H         4.69542063583972   -5.88385947164064    0.76550675447065
H         3.83061459450227   -6.93725781933222   -0.34524364234228
H         3.67561634186242   -7.19258393378594    1.39055207561016
H         3.64183535382038   -3.89108783596158   -0.30406277298415
H         1.69738720380774   -2.37248518304622   -0.31944866057827
H        -2.03620156603843   -4.36170446172025   -0.11760477045562
H        -4.47197612260312   -3.68778705615268   -0.54446619392892
H        -6.14902924322093   -1.85171111283422   -0.73210515545780
H        -6.61269132962991    0.57800741249210   -0.65685565493909
H        -5.81689184468862    2.88632909904238   -0.30469893362977
H        -3.46649558030187    3.29934147985803    0.30799837571077
H        -1.91537671983832    1.41193127681786    0.64062891431070
H        -0.66874154331579   -5.40458341383993    1.54793605978033
H         1.26829848114000   -6.90685562075836    1.56398811317248
Cl        0.04393991678634   -0.28343489130680   -1.00933697253842
