87
 energy: -123.577299697506 gnorm: 0.000604786263 xtb: 6.4.1 (afa7bdf)
Ir       -0.62949855155442   -0.74261061846448    1.58113806742703
C        -2.30404799001503    1.23078586681939    3.84945008296224
C        -1.06501055691098    0.50707898776797    3.44727481684003
C        -0.76270319491331   -0.85332711787877    3.79906863389868
C         0.62268482979216   -1.09340499330649    3.49255543958715
C         1.40048736488347   -2.23985154940211    4.04504448985903
C         1.11715224537648    0.03561832561702    2.78472031444954
C         0.06494498233735    1.04734526618676    2.77547780170599
C         0.27300678995671    2.46517443237726    2.44173439515771
C         0.09209525479446    3.42596336069621    3.43646136173056
C         0.32818239302243    4.76038936558900    3.17385892977668
C         0.75015410826712    5.17797218084063    1.91252932095511
C         1.01070441008464    6.59896266618131    1.63638230694132
C         2.10843607129603    6.98167153653527    0.86779416319395
C         2.35724635152974    8.31740255512279    0.61056510881400
C         1.50907173982105    9.29287344315316    1.10915176990112
C         0.41358296052372    8.92407112464354    1.87282258469850
C         0.16814095414529    7.58933448718691    2.13793919431521
C         0.92232373141784    4.21435522183272    0.92003406511534
C         0.68911657535101    2.87831028668052    1.17836552658638
C         2.53696152373978    0.30774752704242    2.41299466462348
C        -1.61455078848309   -1.72842547864755    4.65619676157528
H        -2.28144343366681    1.38724587170603    4.92864975804819
H        -3.19833055965062    0.65511644954241    3.61994098797560
H        -2.36894686944059    2.19703497761720    3.35777105257965
H         1.42140375140485   -2.13980140177451    5.13128782098010
H         2.42621482935787   -2.24156536778250    3.68900830848190
H         0.93551245574839   -3.19559390958329    3.81386054309455
H        -0.20571699038191    3.12110167459469    4.42800663503493
H         0.20762144735719    5.48742512909304    3.96325267290492
H         2.78403081972669    6.22887808254192    0.48795888609151
H         3.21780346587368    8.60013833360293    0.02096569561063
H         1.70270022787525   10.33580672557222    0.90514536711265
H        -0.25195318377787    9.68097575583964    2.26228951880002
H        -0.69567701485177    7.31126485083836    2.72403154876519
H         1.22590004371764    4.51787114313107   -0.07060041581102
H         0.80303774108701    2.15163681900633    0.38812794858038
H         3.08643787905222   -0.61182934144798    2.23294573311211
H         2.58914369192604    0.92461307248421    1.52027464154099
H         3.02240975695259    0.84992288840798    3.22576445189481
H        -2.67043804373004   -1.54205494236615    4.47850000434369
H        -1.40412840873656   -2.77896327986535    4.47490556302126
H        -1.40608289070145   -1.51877001301121    5.70620387009101
C        -7.01034211977774    5.51358591145016    0.07554936276069
C        -5.75287402656106    4.67728863774546    0.25273654532929
O        -6.15102124045806    3.31171412562063    0.32292908683496
C        -5.23787234763748    2.34502979717011    0.47448273712691
C        -3.84452586392094    2.56558907492168    0.58846085790330
C        -2.98183214883529    1.51960694642208    0.75798323589559
C        -3.44810751544627    0.19141759372937    0.80389955593557
N        -2.58689428264567   -0.83802245584402    0.95304833067158
C        -3.02619783391070   -2.09689298039425    0.80811307877755
C        -1.97356683942547   -3.05979492515628    0.68954670187660
N        -0.75634727368108   -2.65023561074972    0.82287762557222
C         0.30674982926036   -3.52897217903435    0.36009469675263
C         1.69435539689643   -2.93366735168397    0.55995505219473
C         2.76694349344896   -3.98967999196612    0.26179188232251
C         2.34959211808906   -4.90644925126081   -0.89530578697010
C         1.42217221570338   -4.15624126820814   -1.84416066057761
C         0.10046965026354   -3.81740288002174   -1.14697511246016
C        -4.39392960333944   -2.40286721045421    0.65564941866090
C        -5.30245097763813   -1.38571066855793    0.61408750833191
C        -4.84984308682658   -0.04418942950766    0.64484176965965
C        -5.71452714823022    1.04277861423556    0.50406995234832
H        -6.74408904406229    6.56512674340774    0.02436166964236
H        -7.52207873225973    5.23158274399617   -0.84040984441193
H        -7.68478323210118    5.35710024074012    0.91283296537361
H        -5.07649943686146    4.82339474594956   -0.59851400846058
H        -5.23630247514940    4.96124838716471    1.17765410757613
H        -3.44826936867861    3.56623995932928    0.53348262936175
H        -1.91922421374310    1.69922297742836    0.81193503938787
H        -2.20553409430578   -4.07170228981766    0.37669070961206
H         0.23890825972212   -4.46632923160715    0.92636074134397
H         1.80228602676809   -2.07841800338477   -0.10622414287161
H         1.80894292702377   -2.58298208616063    1.58034986290328
H         2.95389542692283   -4.59413153699951    1.15112459744469
H         3.69759787552022   -3.47935795115226    0.01197917214748
H         1.83158043069304   -5.78914579520967   -0.51492063972549
H         3.23289973550918   -5.25579644642151   -1.43087795301242
H         1.91648041175362   -3.24405127161561   -2.17955973907646
H         1.21457004935551   -4.75996717490924   -2.72891197975127
H        -0.60026877007002   -4.64422720536257   -1.26889905463356
H        -0.33324644659720   -2.93095535719561   -1.61228893932031
H        -4.69331956163173   -3.43508832072280    0.57956734912005
H        -6.35926493401078   -1.58208952109417    0.52415385015363
H        -6.77358473224855    0.87524819447848    0.39166668865042
Cl       -0.01567741645144   -0.07674369402828   -0.62714231273533
