83
 energy: -132.888704257523 gnorm: 0.000351297130 xtb: 6.4.1 (afa7bdf)
Ir       -0.67654637041801   -0.10083404692239    1.67104603096909
C        -1.85951820565059    2.22020840203223    3.98956907838321
C        -0.86648384626365    1.20542474156442    3.53992499526686
C        -1.00676986092298   -0.20254822429176    3.86647039691252
C        -2.13995307791451   -0.78715681675156    4.63939358091643
C         0.23950759991884   -0.84517619763479    3.60449740095580
C         0.61784384127818   -2.21607514291982    4.03910049658476
C         1.09248076327877    0.11148930631015    2.96395478495038
C         2.52932636332066   -0.09753508706974    2.62460876730231
C         0.42868968483512    1.40714448986477    2.99555683206534
C         1.16295416227694    2.69701156368039    2.75868249834195
C         0.49844635077572    3.64200457361138    1.75597973331866
C         1.35671078290443    4.88612601180864    1.55197890917099
C         1.58442926525381    5.60255414366617    2.88028106622002
C         2.23732167946426    4.66172970781756    3.88934776102201
C         1.37662999469424    3.41947342027543    4.09978466563427
H        -2.87306524844838    1.84308468799020    3.88693481688978
H        -1.77502463042410    3.15158285069283    3.44160452286125
H        -1.68758686958775    2.42151323991242    5.04819181620309
H        -2.18022761638946   -1.86627524419107    4.52280851799757
H        -2.00192778688620   -0.56511281508657    5.69810854973214
H        -3.09086693891917   -0.36265868319725    4.32940934103442
H        -0.22761924294916   -2.89737940095951    4.00376284509057
H         1.42677675297391   -2.62082446351706    3.43796284620901
H         0.96079295228897   -2.16229078868656    5.07327091520061
H         2.75649221258555   -1.15366061185943    2.51279482048551
H         2.78577796519285    0.41181649915744    1.69896974134541
H         3.15335394575341    0.30669929187714    3.42199354274167
H         2.14943405445724    2.44849365324612    2.35630369144584
H        -0.48314056679702    3.95156505473046    2.11332591230054
H         0.36703314759500    3.12009158620089    0.80844371560001
H         0.85928919736815    5.55654915297018    0.84848188717517
H         2.31980805060107    4.60467231043058    1.12048596482421
H         0.62580870407141    5.94962654989355    3.27404774163068
H         2.21739293535854    6.47896035752518    2.72805583697389
H         2.37424920013052    5.17609514288245    4.84275804176940
H         3.22443120897501    4.36887957434003    3.52450217458081
H         0.41470980380006    3.71828376281074    4.51571896177234
H         1.86146294752310    2.74722432747491    4.81036520365015
C        -1.25736773251835    8.19329591210299   -0.40460921506654
O        -1.55822831586070    6.80823531566319   -0.26550460804155
C        -2.50102066768730    6.47835627603452    0.62030052210220
O        -3.08802056112914    7.28729555855161    1.30530665126394
C        -2.74029884569296    5.01311194675557    0.67565408478176
C        -2.05907419714878    4.12786724508012   -0.15498489515493
C        -2.30298654084465    2.77052540379539   -0.06976158620411
C        -3.24210308393255    2.27952084879353    0.83524101318112
C        -3.60830083691791    0.85595793320730    0.76367721872753
C        -4.95017733930035    0.55898232360279    0.49915571404031
C        -5.33544917739840   -0.73492941940556    0.20036896288525
C        -4.35481416191363   -1.71068716030320    0.14019413709654
C        -3.04752096850447   -1.36738834816541    0.47389920721017
C        -1.97781713317833   -2.32152980508338    0.43958168895041
N        -0.81108665557368   -1.95024185397088    0.85232300054606
C         0.25098934836450   -2.86842154824259    0.82747907299871
C         0.06837247713304   -4.16689343083230    1.30849976254005
C         1.11409696984279   -5.06999692962948    1.28495039805454
C         2.34633446728128   -4.67853495079515    0.77518251640535
C         3.48795163042828   -5.65409691970347    0.71255041590500
F         3.32806352081028   -6.70768129423914    1.52850618493955
F         4.66431343320885   -5.09181000152316    1.04507686086128
F         3.65616677026847   -6.16120431923797   -0.52676143761692
C         2.53490899820917   -3.38781896011593    0.29075559861277
C         1.49259373354723   -2.48182604902133    0.32473213783109
N        -2.68212843110774   -0.10766108583357    0.82775619059386
C        -3.94542396515273    3.17083408020882    1.64699637417962
C        -3.68352429932596    4.52417605940874    1.57915381411901
H        -1.01839094463629    8.62790556106633    0.56768347580826
H        -2.11210971848196    8.72455115700009   -0.82733311345036
H        -0.40322324351988    8.24848504750850   -1.07392230605581
H        -1.34194443801246    4.50659292918781   -0.86445637338149
H        -1.78571161709126    2.08930399549963   -0.72508586530873
H        -5.66658601254974    1.36470235592464    0.49704468874468
H        -6.36672932384489   -0.96880637653872   -0.01144237617328
H        -4.58535759648648   -2.72381721718715   -0.14579846193254
H        -2.14788139336493   -3.31107682132960    0.02961769498382
H        -0.88307764245533   -4.46359155545611    1.72123081462778
H         0.97728109464293   -6.07098520591007    1.66295761228114
H         3.49517502590608   -3.09668297294449   -0.10555110642387
H         1.62020759919513   -1.48287503633294   -0.06139587752448
H        -4.68932796833157    2.80527518480547    2.33837276803312
H        -4.20792437521346    5.22568172238776    2.20982062473225
Cl        0.24540881328068    0.60488952610057   -0.39888739051824
