73
 energy: -125.473155864670 gnorm: 0.000561115093 xtb: 6.4.1 (afa7bdf)
Ir       -0.53488016540874   -1.12161991060664    1.33191791628123
C        -1.88335183269893    0.01986065060924    4.19368864817961
C        -0.66251477949912   -0.21561571835941    3.37301480358809
C         0.17819932615943   -1.36876154983449    3.44428491661709
C        -0.00067851942324   -2.51993490758900    4.37204285625031
C         1.32453891247476   -1.13981624729279    2.60028198597200
C         2.56432460620654   -1.96824529930214    2.57336986053100
C         1.19922937291169    0.15885365350441    2.02177355471801
C         2.24916644225786    0.85321641706485    1.23144576697513
C        -0.05623652776054    0.71725195412534    2.45406177734282
C        -0.48234998271128    2.10331643565714    2.21078485016708
C        -0.73750915688998    2.95457337695293    3.28451140835926
C        -1.09737636995687    4.26479957782015    3.03005531921526
F        -1.33563865238311    5.08440695272306    4.07303533525520
C        -1.22509166001678    4.76879087283813    1.74738272321425
C        -0.96943038996598    3.89710809089981    0.70249990346520
F        -1.09417724577042    4.35010012463121   -0.56059711853387
C        -0.60074541521382    2.58074868115949    0.90560672335242
H        -2.47082444908081    0.84209214538126    3.79555029176997
H        -1.58615050158447    0.26641405090079    5.21348306093746
H        -2.50413314468165   -0.87147462440820    4.23970728491243
H         0.41109047367736   -3.43192393797687    3.94807764988304
H         0.52841712413515   -2.31115176009196    5.30207237131527
H        -1.04928267984855   -2.67500253056224    4.60725439169145
H         3.25326690127511   -1.59937382577349    3.33462896257678
H         2.34755541099163   -3.01067090621581    2.78745346806839
H         3.06034486697638   -1.90001800925430    1.60925962335438
H         2.37059244769260    0.39007607433142    0.25308197170112
H         1.99349415377954    1.89879230524537    1.08320052252659
H         3.20244548729928    0.78408055876091    1.75325499496471
H        -0.63125516815347    2.62036383557098    4.30308598426492
H        -1.50503053851739    5.79376692216099    1.57022025512468
H        -0.41963140175221    1.93489749890897    0.05990212188798
C         2.89339933947441   -8.27555468943647    1.90194131783596
C         3.08789462331957   -7.01214561149993    1.13659106815261
C         4.24858320472545   -6.73797275946889    0.49592975936564
C         4.47313145908902   -5.51708584555403   -0.24661319762603
O         5.49430268966374   -5.22832775381724   -0.83170726332133
O         3.44765523425260   -4.61144196898704   -0.27550149234063
C         2.27149213176562   -4.84999665784147    0.34596571405132
C         1.30113346558939   -3.85603816839989    0.25509975664697
C         0.06629536034271   -4.04443911647085    0.85654614218279
N        -0.90094234141510   -3.03379104490195    0.76444432937028
C        -2.08660332156838   -3.29439405703756    0.30788679445923
C        -3.00798200232729   -2.20472865691189    0.24990932777108
C        -4.29695824748877   -2.26768998137288   -0.29102249262725
C        -5.06914424925721   -1.13085905341979   -0.32812087031483
C        -4.54701209239612    0.07437581142872    0.17522130502637
C        -5.31525814074217    1.28783960828667    0.15450944841724
C        -5.01911685136883    2.57218222757489    0.57051824451218
C        -6.15756124109477    3.34974065382456    0.29654170149056
C        -7.06821467988764    2.49624210278139   -0.26428875882088
O        -6.57229097621720    1.26189982826898   -0.35223433289482
C        -3.24900870323968    0.05409827460979    0.70275756831927
N        -2.51091090086064   -1.04049097672749    0.74459653126395
C        -0.20068185651550   -5.22553941932718    1.56087113621590
C         0.76922192384048   -6.19466665016519    1.66646782449092
C         2.02466875437501   -6.03410344291906    1.06404296363704
H         2.66324040612223   -8.05540122637422    2.94272733228452
H         3.79190848721397   -8.88390165830089    1.86344254043301
H         2.06663203810137   -8.84643216993400    1.48335410573557
H         5.08020219830420   -7.42441654156427    0.50715650781801
H         1.50585805728998   -2.96015248970490   -0.30862364169646
H        -2.35488694848652   -4.28084879775737   -0.05185385365593
H        -4.66374625290219   -3.20361063662331   -0.68061635283723
H        -6.06461775034313   -1.14575894789504   -0.74215898945562
H        -4.10388440011710    2.91530561399377    1.00669372990981
H        -6.28776669561092    4.39456214504653    0.48700467482495
H        -8.06470967201430    2.65583957708817   -0.62672351864939
H        -2.80670330015550    0.95857899416366    1.09192436746144
H        -1.15970004761788   -5.35677329585918    2.03621952012847
H         0.55967296077679   -7.09520461853311    2.21934785256249
Cl       -0.07147260707836   -0.66423455214802   -0.95593998616711
