68
 energy: -103.731188897771 gnorm: 0.000364728137 xtb: 6.4.1 (afa7bdf)
Ir       -0.29355640603999   -0.67349545857983    1.72014715481185
C        -1.99137628449174    1.36666955127881    3.90679421696149
C        -0.71720688101016    0.75846673106913    3.42999868775714
C        -0.23002710290650   -0.50249152400387    3.93892338853896
C        -0.89873330990195   -1.30660079982157    5.00046955491984
C         1.12716216998959   -0.66984299555548    3.49535960285505
C         2.06672436760675   -1.70379198135212    4.00955720493511
C         1.43149895865408    0.40790392233632    2.61777742253909
C         2.76514438325521    0.71282591974334    2.02544789234745
C         0.28174588517106    1.30791683628579    2.57903614001002
C         0.35300067942100    2.68013077272283    1.96709205610711
C        -0.81009954388659    3.04257169529860    1.03768445100473
C        -0.55648639749809    4.41001197110925    0.40843469310960
C        -0.39790248177784    5.47703886054948    1.48914237210536
C         0.73531080779972    5.11015539843839    2.44405897344568
C         0.49069080001501    3.74080715317838    3.07184879595167
H        -2.80184260893779    0.64087888892143    3.89947300537873
H        -2.28043180205671    2.23122375974689    3.32092524301280
H        -1.84892757181851    1.68652719251894    4.93999923166315
H        -0.53232167219039   -2.32861513163996    5.00772757590276
H        -0.68044243716124   -0.86186527106414    5.97220160684909
H        -1.97722625410554   -1.31581948638772    4.87105233599238
H         1.57065806738567   -2.66131724545837    4.14260467853956
H         2.91556257051244   -1.84084217233125    3.34708087049097
H         2.44067151262000   -1.37821777372068    4.98088576195807
H         3.43702481581822   -0.13633845201880    2.10735583988882
H         2.67217240992273    0.98190425370613    0.97498355271467
H         3.21133604820070    1.55612113955935    2.55279025129358
H         1.26082338655466    2.71710212713769    1.35777698781299
H        -1.74905837405149    3.08874516535606    1.58887148250277
H        -0.89703917193993    2.28456219090567    0.25770698670999
H        -1.38649628104454    4.67132165713172   -0.25102627501749
H         0.34938428685176    4.37051634803784   -0.20048501444411
H        -1.33109025479314    5.56993165947697    2.04978572401695
H        -0.19278401620160    6.44451110502163    1.02672578605774
H         0.81767130597941    5.86383131996583    3.22966495523357
H         1.67967504570491    5.09808774994887    1.89497401864491
H        -0.41999044396470    3.77519621073640    3.67018602942327
H         1.31944865037950    3.48117598018176    3.73310850456094
C         0.86966399320990   -7.36839412430646    2.71174343383484
O         2.07816535471010   -6.72697401933877    2.33819734178834
C         2.04092060711436   -5.46732447009935    1.87505269222462
C         3.27411363438152   -4.92016217198552    1.49766072302290
C         3.31588340373899   -3.63148270766731    1.01360804183491
F         4.50708900669014   -3.10895971945770    0.65587672004461
C         2.18790743746104   -2.83879206901302    0.89447443705033
C         0.96681164428315   -3.39221031345070    1.26331353386773
N        -0.19017871629880   -2.61043015973154    1.13030281361612
C        -1.23730199992269   -3.10313018366314    0.54395152388208
C        -2.36877280110161   -2.24085774075199    0.40727620598721
C        -3.53786425076697   -2.57070021996145   -0.28561713112109
C        -4.54013780691165   -1.63227460455689   -0.40860151419770
C        -4.33712759881416   -0.37705877119460    0.16565371313752
Br       -5.66695059783014    0.97657656290661    0.03629541081118
C        -3.15823661512070   -0.10969678884423    0.84822367876435
N        -2.19907832256616   -1.01802429337996    0.97499895774347
C         0.88561733460884   -4.69667967428529    1.75093113923961
H         0.18603319251237   -7.44567824407575    1.86303153550121
H         0.38516521815689   -6.84805894234755    3.54113778900885
H         1.16167099680483   -8.36607021127840    3.03287753943706
H         4.17132658484678   -5.50917322751206    1.58610603276564
H         2.24475348352412   -1.84428269212244    0.48420298617764
H        -1.23954662811380   -4.10104681206172    0.12216703627904
H        -3.63989406236417   -3.54945787877046   -0.72650249027769
H        -5.45313208708292   -1.85298831983129   -0.93856593704421
H        -2.99012255771330    0.85951065290029    1.29292468328323
H        -0.07449061031723   -5.08256379156400    2.05178795998872
Cl        0.23031590672354   -0.12397433297455   -0.54623260319058
