55
 energy: -88.913358961709 gnorm: 0.000812909375 xtb: 6.4.1 (afa7bdf)
Ir       -1.01254669364071   -1.09502567083201    1.23256361922707
C        -2.36985521912651    1.26396027522269    3.32226998163325
C        -1.23616127560594    0.37642833335056    2.93446136420127
C        -1.01756237128981   -0.95905790358818    3.45228239541777
C        -1.87104189398585   -1.63890927524214    4.46717994825261
C         0.29771607720221   -1.37530011175826    3.05693431238965
C         1.00805455501518   -2.58155905780409    3.56299936827938
C         0.83901342618709   -0.36618199325903    2.20284382711524
C         2.23731429002960   -0.28240175170515    1.69404870143508
C        -0.10366278331635    0.74019521792456    2.16336798642234
C         0.19778870152202    2.06812656761734    1.55976011168138
H        -2.11402124633878    1.76870557832552    4.25487021050268
H        -3.27881124685591    0.69311471408045    3.49226897430084
H        -2.55194850320783    2.02768702607144    2.57078776556944
H        -2.92348661926797   -1.41860590819472    4.31290999803391
H        -1.72917543228633   -2.71539600026378    4.44150105874518
H        -1.59317762692363   -1.28477362114007    5.46050462794710
H         0.32591393511498   -3.41469408281856    3.70835648815271
H         1.80016576780014   -2.89019764724800    2.88738566792283
H         1.45616681387502   -2.34046518068770    4.52733560717005
H         2.25820380207755    0.15155353725902    0.69726882715998
H         2.70884212781719   -1.25989362888019    1.66702669538287
H         2.81831832664025    0.36293703949594    2.35368732949382
H        -0.65011427225527    2.74169261607863    1.63258644160724
H         0.47004884379412    1.95989779369359    0.51141062224059
H         1.04470067673192    2.51345873078218    2.08135596718180
C        -5.86212479823104    1.69493821540774    0.30098549238198
O        -6.06731562250260    0.40293893335656   -0.25433675180548
C        -5.11550613120254   -0.51563301865971   -0.16811169736997
C        -3.89121702007926   -0.36244046853441    0.48818903335076
N        -2.97069047841973   -1.31897830274231    0.53661329039678
C        -3.20453926109745   -2.50059950669697   -0.07912380862021
C        -2.10474520612490   -3.41243377634956   -0.03757968265340
N        -1.00973506072170   -2.98475833366908    0.50693934460349
C         0.11724130240195   -3.81818560506376    0.56433757856050
C         0.02457794194163   -5.10436016065689    1.09724204178678
C         1.14513796580908   -5.91159474081442    1.15313597267974
C         2.34314776868997   -5.42684144697563    0.65478200495337
F         3.43565658796715   -6.21596405673403    0.69979438471333
C         2.45552584505644   -4.15507475842829    0.11573163699062
C         1.33708010244170   -3.34503483758356    0.08122837096681
C        -4.41153057114428   -2.75274939089542   -0.74074638803883
C        -5.36506437163786   -1.76456234102308   -0.78283637689917
Br       -7.02883012136338   -2.02339211551462   -1.66561760845819
H        -4.99523111063071    2.18020236730470   -0.15143120999852
H        -6.76227972298233    2.25539936989308    0.05885149078808
H        -5.74770375234851    1.63875444596238    1.38518412570480
H        -3.64583160292578    0.56406294253537    0.98325486868054
H        -2.17302908702794   -4.39536738759097   -0.48816712756561
H        -0.91712439312834   -5.45904804131286    1.48607290955501
H         1.09978022065780   -6.90523849998889    1.56946930980026
H         3.40419905360192   -3.81821530712828   -0.27076121322145
H         1.38424926906816   -2.35690371179478   -0.34893041494295
H        -4.57684617463197   -3.70214242105391   -1.22281923521984
Cl       -0.56331673113963   -0.35713264172226   -0.99263023859461
