83
 energy: -123.632470596906 gnorm: 0.000351222279 xtb: 6.4.1 (afa7bdf)
Ir       -0.49513789094741   -1.10194750900873    0.80868799152826
C        -2.16963704815374    0.58085079227535    3.31199525860719
C        -0.90267831252289   -0.00521811595854    2.79337327852552
C        -0.47628867850728   -1.35665962215512    3.02840713875287
C         0.88427546156248   -1.47797037589472    2.56942032483110
C         1.83195275537144   -2.57018400510093    2.93188398848179
C         1.24251468976663   -0.25640562045937    1.93184335399381
C         0.12867231619664    0.66869395120311    2.07866725630485
C         0.23781937482931    2.12028028909124    1.85882841895509
C         0.07441833815924    2.98138226338323    2.94360005394811
C         0.25666397697978    4.34115858728617    2.79083014767351
C         0.60691897789577    4.88228211743856    1.55500271944946
C         0.83145961201583    6.32735464537000    1.40034536885927
C         1.90079250149565    6.79621006383031    0.63964178713376
C         2.11998835787254    8.15370020596659    0.49494529628383
C         1.27011890573011    9.06496574403682    1.10057074838943
C         0.20372666130100    8.60974326065027    1.85878020513689
C        -0.01195479225737    7.25235568691992    2.01182622562679
C         0.75090329261412    4.01911632305302    0.47001230945943
C         0.56960117372690    2.65867533517488    0.61745258784621
C         2.60635571868989    0.12221299665971    1.46888567177680
C        -1.20039726013905   -2.33662999093427    3.88879461762771
H        -2.12715144298025    0.60116175266573    4.40154236592457
H        -3.03120858862860   -0.02104621329271    3.02920197737714
H        -2.31295635037506    1.59402302690552    2.94842107526890
H         2.41802964554210   -2.23543993779167    3.78930957125754
H         2.52655387485086   -2.78913291083615    2.12540240502497
H         1.30847816520739   -3.47622993298909    3.22262675182291
H        -0.16202921131380    2.58036983277637    3.91733678922047
H         0.15503156266845    4.99162014668114    3.64679167156712
H         2.57693143285754    6.09184752011907    0.17724452402295
H         2.95724163993717    8.50385517538300   -0.09151797733088
H         1.43929805256099   10.12538291855438    0.98340258412248
H        -0.46292753740473    9.31693064375323    2.33102492731622
H        -0.85371187325603    6.90718334053585    2.59461243244504
H         0.99512021757533    4.42075704427517   -0.50217024233204
H         0.66612286348629    2.01053564035136   -0.24038943895149
H         3.19622567196967   -0.75387577556226    1.21547773209791
H         2.55797770920069    0.77840747124973    0.60453050201053
H         3.11233467199933    0.66129411772286    2.27082443626191
H        -2.27579728743681   -2.20983217223574    3.80166262265735
H        -0.94457595075275   -3.36024394746395    3.62979504923030
H        -0.92327663538902   -2.17157097577849    4.93081293011820
Cl       -6.14019176758646    3.41415548370895   -0.48187219512493
C        -5.05687674977921    2.06832394525891   -0.38822336140525
C        -3.74925412012424    2.27446401007421    0.08513597190268
C        -2.88148145525121    1.22302610689708    0.18847027493907
C        -3.26955856365199   -0.07925573955343   -0.18413096277160
N        -2.41309675779656   -1.12258178081711   -0.05871681968247
C        -2.75076196674246   -2.30862660531540   -0.58491257074443
C        -1.71786048274191   -3.30070665979598   -0.52768097001547
N        -0.60378208678780   -2.98303417580335    0.03526554860765
C         0.46734238834087   -3.94698204597445    0.06923043445455
C         1.70854173386212   -3.45692725511695   -0.68773737492483
C         1.52498054748171   -3.51963498216441   -2.20780193098308
C         2.79720615035895   -3.10156180344070   -2.89321407419495
C         3.70752243652596   -4.04555936191936   -3.34988112241143
C         4.89046610657819   -3.65093258235056   -3.95190242381049
C         5.17785857819666   -2.30481683216011   -4.10198168708493
C         4.27715908236326   -1.35606062676387   -3.64572399117989
C         3.09653607431427   -1.75282769227934   -3.04401904146304
C        -4.01037137008692   -2.55392412756764   -1.16616237035282
C        -4.93385084872689   -1.54911933774839   -1.20088770310212
C        -4.57630640889220   -0.26730700027370   -0.72575768635674
C        -5.46187649687396    0.82342217738500   -0.79690480589058
H        -3.43619932371898    3.26922961983118    0.35761352795335
H        -1.86752018007548    1.39429018867111    0.51016581832683
H        -1.87836083869186   -4.27730361305150   -0.97249214578015
H         0.73424245227487   -4.11130242418243    1.11450906312896
H         0.13067864880995   -4.89562869691588   -0.36030939803173
H         1.92614318134342   -2.42561727631100   -0.40558684021248
H         2.55522900756057   -4.08305225877500   -0.40351906064946
H         0.71828972643519   -2.84521224975969   -2.49839192354551
H         1.26449738593059   -4.53595029613645   -2.50891590107325
H         3.49116018125223   -5.09909583199833   -3.24050310122669
H         5.58922942143361   -4.39499799245747   -4.30736050670315
H         6.09913481745138   -1.99631995702514   -4.57517055116603
H         4.49606204133330   -0.30432351459476   -3.76380859060791
H         2.39444798350901   -1.01258214771614   -2.69074122471155
H        -4.22345858804346   -3.53380834533485   -1.56045446452530
H        -5.92139435806767   -1.70737882323648   -1.60491845248489
H        -6.45299646270674    0.66952095569960   -1.19247587398048
Cl        0.14155411900676   -0.29371723887650   -1.33331195143279
