67
 energy: -104.532067925411 gnorm: 0.000920607316 xtb: 6.4.1 (afa7bdf)
Ir       -0.47921060232648   -0.96239487934454    1.32183434663884
C        -1.94793341684023    1.06591030580316    3.68543383442979
C        -0.74143617194735    0.37874886099822    3.14480679800512
C        -0.37401647870954   -0.96136486073925    3.54770255189771
C        -1.10782027096088   -1.77996172707600    4.55318580496726
C         0.95173669452931   -1.22625888920407    3.06454551495740
C         1.80080259946120   -2.37739932808971    3.47594590633255
C         1.34543442714344   -0.11828923067650    2.25699465041974
C         2.69669258073759    0.09855053213270    1.66586438980935
C         0.29291242535890    0.89364662427599    2.32016275602436
C         0.48748955182878    2.29692741269830    1.81351707875571
C        -0.63758565964293    2.82907323411018    0.91871533738794
C        -0.26691725555384    4.21516206126218    0.39768704618268
C        -0.02354426934564    5.17691256651546    1.55848274998122
C         1.07454007226044    4.64350647263316    2.47484160485555
C         0.71545930308165    3.25447233841143    2.99505458093730
H        -2.82712296293669    0.42738562446382    3.62736825167154
H        -2.15511568523303    1.99978884129233    3.17603784027678
H        -1.77336592508257    1.28394024870432    4.73965926070685
H        -0.86587178960384   -2.83395331983216    4.45312996703408
H        -0.81493459500558   -1.45960864079104    5.55376143749919
H        -2.18266275213740   -1.65168377797996    4.46129230012279
H         1.20846541208992   -3.27515292030568    3.62914277436407
H         2.57022866146476   -2.59006564733089    2.74031559280066
H         2.28808894373769   -2.12646039698805    4.41875774977827
H         3.27852768918145   -0.81753036854959    1.67574261806574
H         2.61952095136970    0.45445625825227    0.64072683503243
H         3.22750352624278    0.85163072830700    2.24797939994150
H         1.39618667313638    2.29992218911677    1.20421220222464
H        -1.57354424361400    2.91000304674932    1.47235816686360
H        -0.78732000810841    2.14625182759714    0.08085410205023
H        -1.06925462098790    4.59514731939704   -0.23799032755907
H         0.63548239737771    4.14739982276590   -0.21405723076936
H        -0.94724240987878    5.30009808942511    2.12922436850028
H         0.25931577263523    6.15823278885047    1.17271815742518
H         1.21891001479826    5.32320831882048    3.31693621348831
H         2.01481746487830    4.59622017733639    1.92073843575909
H        -0.18879932975994    3.31890050407514    3.60080024642089
H         1.51979375019806    2.87610401632125    3.62849732691380
F        -5.52479315902005    1.57189869590352    1.13989385137794
C        -5.45756767285566    0.99192672568874   -0.07078182800818
F        -6.70739035129372    0.66549194796267   -0.41530190881877
F        -5.05930684124585    1.95373507216508   -0.92282570648863
C        -4.52221448610611   -0.18810942825208   -0.07559309820781
C        -4.85232825179339   -1.37492618530071   -0.73539098514951
C        -3.93690967181849   -2.40625424338635   -0.71241240489533
C        -2.72807258199800   -2.23310205571029   -0.03115957235763
C        -1.67865733801247   -3.20184622694213    0.02367831988864
N        -0.57285651265582   -2.83640546395512    0.59948602987063
C         0.50224170667192   -3.73183999747604    0.66680447561690
C         1.77121782529501   -3.30209261522226    0.27674880076298
C         2.83389798197022   -4.18538234600228    0.31219036988030
C         2.64905740029682   -5.48590097333845    0.75894393590981
C         1.39023839499234   -5.90814692568934    1.16094126231382
C         0.31366468039773   -5.04288816664848    1.10736270466707
N        -2.43010098094101   -1.07407582497843    0.61346944180802
C        -3.30332679515702   -0.07597601445708    0.57631692442199
H        -5.79727501002422   -1.47349934079868   -1.24697204794378
H        -4.13587357425693   -3.33584643606789   -1.22062882727095
H        -1.78517433563245   -4.17544178922933   -0.43921013642359
H         1.89097217608369   -2.29493929258857   -0.09176930079865
H         3.80994820812792   -3.85903513604502   -0.01122692176837
H         3.48389539021578   -6.16795940959451    0.79516071595771
H         1.24667246406549   -6.91576718595223    1.51695766001479
H        -0.66354033719373   -5.36102630044576    1.43567561282911
H        -3.03109542139376    0.84042487395172    1.07948865620742
Cl        0.03123862944748   -0.26959718099384   -0.90511666359008
