71
 energy: -120.556662723139 gnorm: 0.000407954414 xtb: 6.4.1 (afa7bdf)
Ir       -0.04830482393609   -0.85022015676821    1.56943983385527
C        -1.38167288262094    0.37992010144005    4.37148647255001
C        -0.15600565384434   -0.00688300624742    3.61934389446020
C         0.51009115976823   -1.26861080530460    3.70392147350629
C         1.70387870128265   -1.19460532835510    2.90201775008420
C         2.81206440353162   -2.19214024096829    2.89409927310868
C         1.82208437897844    0.15204810487497    2.40047923131637
C         0.65597901608510    0.87275253241179    2.79748482222581
C         0.42052216423000    2.29967445066257    2.54947284836939
C         0.07817453319077    3.16480103310351    3.58815185227991
C        -0.13665889449135    4.50529656587999    3.33810683675267
C        -0.01916793973610    5.02461520843475    2.04923374625896
C        -0.26113401101427    6.45017055578181    1.78649126330096
C         0.56382081871638    7.16381344863327    0.91938920002288
C         0.33345033235995    8.50517846226322    0.67509246154626
C        -0.72809474496176    9.15243308562418    1.28647194067174
C        -1.55669748601306    8.45081455773316    2.14711770135925
C        -1.32353770445229    7.11152866925775    2.39921803168890
C         0.33402296967179    4.15913126447849    1.01467511382769
C         0.55223644079670    2.81816315864820    1.25851120208187
C         3.01832260835673    0.70003079171841    1.71220213140113
C         0.12511216172628   -2.41193146489787    4.57550843120276
H        -1.10969746673886    0.62803555780517    5.39815486654849
H        -2.09428916071277   -0.44036407151479    4.40954633554649
H        -1.85863976740079    1.24760238710334    3.92317605863810
H         3.50135188252864   -1.95592078147171    3.70587205296620
H         3.36430409906718   -2.15091316386395    1.95973494317631
H         2.43945979101029   -3.20040298218092    3.04700374052210
H         0.01206559412244    2.79368189861810    4.59812857426262
H        -0.37977422471109    5.16630339298220    4.15601898775899
H         1.40347509250678    6.67102111940199    0.45129373496684
H         0.98415622518900    9.04903055083210    0.00579347677184
H        -0.90954667497533   10.19915351410922    1.09185661793531
H        -2.38854536693414    8.94999852592334    2.62231497052526
H        -1.98522737058465    6.56654503544285    3.05630953916960
H         0.41576997148832    4.53735055321348    0.00691739856713
H         0.80277903464085    2.15760654407383    0.44065793808145
H         3.08873567147293    0.32037031518829    0.69276624405657
H         2.97409805563525    1.78523161948215    1.67126415474647
H         3.91621777937403    0.39169693747703    2.24563619260786
H        -0.93449542645687   -2.39161672222352    4.81101189754545
H         0.37082163606140   -3.36267659919616    4.10881715985389
H         0.68263444775529   -2.34258134201318    5.51010112927127
F         1.33395982099562   -7.52815224865747    1.83446103235728
C         0.77992632624768   -6.31886503864195    1.63037927285313
C         1.55089646583894   -5.31185810648924    1.06973954292105
C         0.98278722379720   -4.06860723906372    0.87223506628949
C        -0.35155556120817   -3.84732280540481    1.21556675817301
N        -0.91764515153046   -2.58485805806166    0.98640947828819
C        -2.04982008370385   -2.49811720319131    0.35534211932571
C        -2.59462367504426   -1.18898335984204    0.16296416255552
C        -3.75687334888772   -0.91111688105873   -0.56360055649060
C        -4.17658818384959    0.39755274719791   -0.68909629149362
C        -3.41113026111889    1.39535199660464   -0.08037541845192
C        -3.79194724243874    2.84861194638451   -0.18188422277791
F        -3.13516925617396    3.46998691031778   -1.17738342162738
F        -5.09764912371587    3.02422480320892   -0.41643490946148
F        -3.50233838733847    3.52387491868463    0.94090045440244
C        -2.26097834422995    1.05473833220111    0.61506767446621
N        -1.86326303760927   -0.20292569301189    0.74158572181684
C        -1.11299827385472   -4.87778175670696    1.77192129620126
C        -0.54316195495583   -6.11719650123187    1.99091081081519
H         2.57414761885793   -5.51080714562191    0.79529455039860
H         1.54514768537494   -3.27000532584137    0.41414990833478
H        -2.54702637596960   -3.37458033742353   -0.04288263517022
H        -4.30910824747812   -1.71571990330001   -1.02173252534984
H        -5.07131773610048    0.65091018074660   -1.23657811744817
H        -1.65230818086177    1.82092168882841    1.07776204877835
H        -2.13689697354032   -4.69658912985797    2.05862345375720
H        -1.10853829053317   -6.92399026890986    2.42873092395663
Cl        0.79134617908641   -0.66462079931105   -0.64001870275132
