73
 energy: -105.517373906233 gnorm: 0.000574400338 xtb: 6.4.1 (afa7bdf)
Ir       -0.65136101966879   -0.78273683509439    1.43042187733890
C        -1.92990173348209    1.53975374305229    3.72917951589828
C        -0.84074911349295    0.64314361481032    3.24271090706210
C        -0.75962739999867   -0.74872203243529    3.64601447327267
C        -1.72649385932376   -1.41919892872434    4.56227101231533
C         0.53857292546756   -1.23789743529624    3.29825939449669
C         1.14022056405130   -2.51307109277331    3.77660880441803
C         1.18858969299682   -0.22244975990843    2.53115914657447
C         2.61394692276343   -0.25134178630636    2.08917165381722
C         0.34951444273255    0.97159385963276    2.55065598657711
C         0.87270210018800    2.32345343421761    2.14701221858935
C        -0.00983175576430    3.12415404624251    1.18421032725732
C         0.69471713376288    4.42278735411035    0.80012805952421
C         0.99486853653580    5.25814450229637    2.04225926145891
C         1.84974811878822    4.46313741849096    3.02571734179750
C         1.16060556822821    3.15624255599068    3.40873029343203
H        -2.91128928716154    1.11026697706699    3.53778574517263
H        -1.88688864420828    2.52174446528945    3.27349421600649
H        -1.82220977224173    1.65333679209052    4.80869362504712
H        -1.68320518434199   -2.49968994639290    4.45800416648391
H        -1.47473016227819   -1.16870808568817    5.59355519796075
H        -2.74295276670906   -1.08625877015490    4.37215833453685
H         0.38611841464003   -3.28229542235988    3.91860263206030
H         1.89612019790044   -2.88337194743940    3.09040918568880
H         1.61670273599659   -2.32576779244369    4.73974799455504
H         2.98783343455690   -1.27013089265535    2.05325753989259
H         2.72534562931910    0.19447878621019    1.10354532897125
H         3.22401677710936    0.31612400443806    2.79228941910946
H         1.82526136708478    2.16308128894840    1.63373109580264
H        -0.96392574218761    3.37516074351939    1.64855465668874
H        -0.19856538940823    2.53001315875666    0.28883933587507
H         0.06634848750626    4.99178516616142    0.11185665020432
H         1.62821371119998    4.19378761768869    0.28091396698784
H         0.05686738085764    5.54566407018048    2.52377274582815
H         1.51441438138595    6.17509663846657    1.75695047254850
H         2.03133519575312    5.05705004220901    3.92390844450977
H         2.81836411275337    4.24777404476060    2.56861120392043
H         0.22776743316090    3.37921764213029    3.92699853429288
H         1.79630071320414    2.58771212868845    4.09032418493886
C         4.02968019394434   -5.88927699702172    0.67849307805352
C         2.79503051561371   -5.04900750359681    0.68099251131553
C         2.80521401720671   -3.75168984904448    0.17347201744445
C         1.67294765523854   -2.96301304635222    0.20610411390641
C         0.48526509605304   -3.47024815300659    0.73465598808857
N        -0.65983277887102   -2.66929082918342    0.74677809593407
C        -1.80672631245356   -3.17041020062003    0.40467336749716
C        -2.92958117493717   -2.28733334495604    0.38879049099636
C        -4.22219032623688   -2.69447060658812   -0.00348705746351
C        -5.22584392857646   -1.77125803529507   -0.05222598106873
C        -4.93020882322285   -0.41511658998561    0.21685245772670
C        -5.89752425350041    0.59968790585956    0.10379847230259
C        -5.54903303165681    1.90990086604818    0.31301268523687
Cl       -6.73302062412488    3.16340689230756    0.15655112326821
C        -4.22496035075382    2.25922188868112    0.63260661481862
C        -3.27601999417767    1.28569593643090    0.77497920018136
C        -3.59722547873774   -0.07277291818460    0.58931346480295
N        -2.64490869387685   -1.02300942159389    0.73461662141555
C         0.46090700519945   -4.77341126622602    1.23975934958734
C         1.60585560807566   -5.54149571529276    1.21679761202855
H         4.50370027606459   -5.85374351716829    1.65985369203162
H         4.74583173009479   -5.53119089441022   -0.05609017543744
H         3.78979764510614   -6.92842178233230    0.46568970527872
H         3.71350406409428   -3.35580582598586   -0.25552822990250
H         1.67665540213727   -1.96777422410948   -0.20945371935800
H        -1.90159994432764   -4.19655302550615    0.07012961526689
H        -4.39287748490390   -3.73006365995856   -0.24777200079028
H        -6.23352067318188   -2.05097601654066   -0.31689685445311
H        -6.90722354479148    0.33534840591601   -0.16682861023387
H        -3.97051270083005    3.29937988957623    0.75455383359685
H        -2.24863283734273    1.53962251403755    0.97888265784466
H        -0.44516877173987   -5.16365075485368    1.67735286001538
H         1.58160604509576   -6.54237671504459    1.62064457275940
Cl       -0.14060967328712   -0.01106577375379   -0.76581752362164
