72
 energy: -107.753205513402 gnorm: 0.000509826081 xtb: 6.4.1 (afa7bdf)
Ir       -0.17790088773347   -0.49170389997332    2.26100793319785
C        -2.59015718065030    1.13557463515065    4.12397160107809
C        -1.18488166246166    0.66289315638526    3.98977228744754
C        -0.71288986356754   -0.61734383426438    4.43491963396065
C        -1.54465062144313   -1.62118058488218    5.15965034132352
C         0.72593046122446   -0.61538076725893    4.34581328551383
C         1.64027053826643   -1.57759436805359    5.02523802133235
C         1.12605799483758    0.59844895371407    3.72235126507062
C         2.52339764540811    1.09220841437464    3.57483633708616
C        -0.06743597097072    1.39977440201845    3.50072758757546
C        -0.04013871024429    2.83805567621686    3.18539122773477
C        -0.58387438728662    3.73884512369669    4.10021419073944
C        -0.51458849684036    5.09252706867210    3.83221339837281
F        -1.03714707303657    5.95657467109962    4.72757122726336
C         0.06849896011760    5.59723919430690    2.68366434478776
C         0.59608778213895    4.67714131150800    1.79438644024334
F         1.16785674774846    5.13194266683361    0.66066389188931
C         0.55681593175409    3.31497786521020    2.02047519052681
H        -2.73825063413698    2.08936760639921    3.62685606231098
H        -2.82236739028919    1.25108594028121    5.18334111608232
H        -3.29131496792109    0.41204954614152    3.71346689298287
H        -1.13551898778710   -2.62274057349250    5.06280911670204
H        -1.57071245389125   -1.36614439161345    6.21958465623384
H        -2.56520746074551   -1.62152534162851    4.78761300624471
H         1.96513140867109   -1.12749034295441    5.96463275754748
H         1.13564727969489   -2.50968310012997    5.26255489738197
H         2.52885037697980   -1.78160660362944    4.43349766242644
H         3.23808714493761    0.28636168098435    3.70979342520360
H         2.68079993622964    1.54130014826170    2.59771708230696
H         2.71394656323894    1.85726500404078    4.32795686637508
H        -1.03106985284356    3.40209138905960    5.02088318700683
H         0.11320970003072    6.65639798054816    2.49272789060067
H         0.96212440868305    2.63779857039394    1.28457003166903
C         6.41258311971024   -2.49071393482249   -0.75704679809062
C         5.18099783198207   -3.03363046937081   -0.04023606233175
C         3.89942321601594   -2.37791227941217   -0.55262929335846
C         2.62056212803535   -2.98723238132581    0.02357134113714
C         2.48061031490507   -2.75274528079136    1.52592335606091
C         1.13505833573358   -3.26675476974587    2.05841896242167
N         0.04666986449152   -2.41107798849812    1.65687179769218
C        -0.82863425365642   -2.85886210199414    0.82539831961171
C        -1.86211052817805   -1.96372755081440    0.39388267064956
C        -2.87432168616140   -2.34953509562405   -0.50487794360427
C        -3.81003991522897   -1.42976998344781   -0.88494352526122
C        -3.69782920918618   -0.10122374979585   -0.42421913479491
C        -4.59286264403805    0.90865807828009   -0.82978682977962
C        -4.42228406119703    2.20237410210087   -0.41754716155187
C        -3.33583263668534    2.53655047618119    0.40566022478252
C        -2.46320270523581    1.57484092456084    0.83877874426380
C        -2.62634024933394    0.22991757330076    0.45961890639586
N        -1.77098067545852   -0.72672274663475    0.90211663347712
H         7.31768747306740   -2.95671851740802   -0.37298069988064
H         6.35445069344068   -2.68826005279359   -1.82547429560275
H         6.49416321953021   -1.41519009265171   -0.61452861005725
H         5.12335238124646   -4.11337229365983   -0.19563970205799
H         5.29204298193130   -2.85312605018780    1.02969174357139
H         3.86915123532163   -2.47863454664374   -1.64017271814474
H         3.92031070858191   -1.31009580201607   -0.32638338402741
H         2.60754651049459   -4.05909837354870   -0.18684388564268
H         1.77113665516812   -2.52734422706662   -0.48543843112203
H         2.56617980651362   -1.68370453838074    1.72745554931032
H         3.27368379218401   -3.27641877864136    2.05790473594632
H         0.96578806550610   -4.28264059421448    1.68901074736604
H         1.16535800671499   -3.28863662575004    3.14790937716736
H        -0.78537780247509   -3.87063420849169    0.43656178417660
H        -2.89536158591745   -3.36398158685897   -0.86748575891826
H        -4.61916701204722   -1.69377738281865   -1.54816230114299
H        -5.40628770645873    0.64061951714065   -1.48620630617095
H        -5.10628752468383    2.97293578340667   -0.73658480418175
H        -3.18585313059401    3.56514339205136    0.69478081544874
H        -1.60937828373184    1.84424969588582    1.43637181774203
Cl        1.00637399156727    0.24475026305494    0.33422226230083
