68
 energy: -118.991223209892 gnorm: 0.000310060113 xtb: 6.4.1 (afa7bdf)
Ir       -0.49214632426329   -0.89350091206468    1.35164637680334
C        -1.71935007383443    0.91253773227497    3.96031288957653
C        -0.53949382396974    0.29936209826993    3.29098279880064
C        -0.05987503786406   -1.02885153533692    3.54080709586875
C        -0.60513098624449   -1.96475738412238    4.56393076697599
C         1.18849269361835   -1.19063420824040    2.83974198070828
C         2.15897445679473   -2.30132479889710    3.03958321870146
C         1.43948611426200   -0.00290661863115    2.09733378362194
C         2.69170700196175    0.31240091180444    1.35634110242156
C         0.35706898950516    0.92782303295162    2.36667438719941
C         0.41012263066105    2.35590243303752    2.02020667552825
C         0.26137399574187    3.31567229132007    3.02062050315714
C         0.37540838922610    4.65267153890176    2.69050771811455
F         0.23590450776143    5.57295030952787    3.66684866551570
C         0.62906593458688    5.08505682814307    1.40103526392576
C         0.77211666122555    4.10837928802485    0.43017297967745
F         1.01910886443077    4.49308634460070   -0.83782537581122
C         0.67123397201735    2.75934812377545    0.71032328443037
H        -2.02721149353594    1.82832224461561    3.46476653050560
H        -1.46051883809814    1.14077824735657    4.99486713013368
H        -2.55924535722136    0.22204843625892    3.98085964713422
H        -0.35555781615375   -2.99428286464488    4.32296178628622
H        -0.16505678842689   -1.72868662203002    5.53352864542881
H        -1.68351590419015   -1.86821711794824    4.65141780186588
H         2.80744394981632   -2.04486121817136    3.87853571561385
H         1.65700103239627   -3.23578476128272    3.27256477560042
H         2.77653914184227   -2.44370253312654    2.15816344466554
H         2.63154658341837   -0.02932414057460    0.32373946203954
H         2.85833061312210    1.38676125107745    1.34034228929586
H         3.53941000421444   -0.17798160177871    1.82763843736140
H         0.09149718247412    3.03779092965599    4.04715156185363
H         0.71603546418793    6.13225043366564    1.16437555634708
H         0.76821347349456    2.03613455562518   -0.08470879301791
C         4.49425139685528   -5.19760323522171   -0.60729291448359
O         3.44920426431183   -4.24508722931351   -0.51375540193938
C         2.33699890644932   -4.55338121889234    0.17379567892018
C         2.12969412038999   -5.75252225018469    0.85750865221996
C         0.93748773377726   -5.95336542365293    1.53718694482569
Cl        0.69799242617094   -7.44562312943017    2.39243627217969
C        -0.06563309177381   -5.00192710185987    1.54894093046596
C         0.15105628252715   -3.80109496143293    0.86738462047220
N        -0.84394736482080   -2.81182301150617    0.84858266174560
C        -2.06410773108901   -3.13586616430024    0.55960781845453
C        -3.02570322805132   -2.07900343717709    0.51050176259621
C        -4.37497554771756   -2.29167754953228    0.16274171752255
C        -5.22042252417226   -1.22259419138283    0.08661193574850
C        -4.70919408998005    0.07808350239695    0.29631926857053
C        -5.51704320915579    1.22255560527133    0.16978612762471
C        -4.97422808309846    2.47253581457469    0.32841476739581
Cl       -5.95935815911527    3.88359688443448    0.16387993188811
C        -3.60330093945028    2.62495376088459    0.60434471662432
C        -2.80532852794180    1.52554887286660    0.75538539757241
C        -3.32753460884193    0.22346418278744    0.62534906671837
N        -2.53023342410248   -0.86042228317174    0.78345564348847
C         1.34212159345529   -3.57092464696835    0.19680338227209
H         4.90013998039396   -5.43859539147314    0.37829771110939
H         4.15415910503305   -6.11013566498488   -1.10310526386400
H         5.26462442432805   -4.72285339211795   -1.21123628838165
H         2.87684326986912   -6.52748839383095    0.87023124033651
H        -0.97875360507412   -5.17457286890799    2.09362840023269
H        -2.33643321879537   -4.15272528591691    0.30256613368204
H        -4.71289584231371   -3.29625195459165   -0.03138299775058
H        -6.26483604341162   -1.34916191425582   -0.15184673241236
H        -6.56208771292450    1.10336776292751   -0.06707620775290
H        -3.18863795105660    3.61607479703273    0.68984397179728
H        -1.74881198118335    1.64564962525602    0.92832881523400
H         1.49424792168945   -2.65118891230919   -0.34508752861002
Cl       -0.03561075402650   -0.39995391002950   -0.92304534080236
