75
 energy: -121.603296212515 gnorm: 0.000311448870 xtb: 6.4.1 (afa7bdf)
Ir       -0.53204899047782   -0.70172160352292    1.65376464539268
C        -1.84458865680900    0.99805295518103    4.37470370134803
C        -0.67314562892746    0.42261495806124    3.66227619667794
C        -0.20053664334457   -0.92200782550064    3.84659171033223
C         1.06789732467063   -1.03952388812988    3.18100561993981
C         2.05949557867529   -2.13215989578160    3.37761045919821
C         1.31838290814779    0.18830460542893    2.49074344457364
C         0.23428117817422    1.10396235352103    2.79678450589355
C         0.27460462071804    2.54735648670148    2.52496669623848
C         0.22794262024963    3.44708129535966    3.58878686855584
C         0.35043369984502    4.80349755347055    3.36396383149544
C         0.52296426693125    5.30355924487534    2.07441713535269
C         0.68770043593034    6.74631454051049    1.84288788228508
C         1.61690335580935    7.21063252147559    0.91339839457482
C         1.78990624333479    8.56662871799663    0.70584157759788
C         1.03400506798700    9.48265224583557    1.41919810021184
C         0.10350974134931    9.03279466272429    2.34187819604974
C        -0.06691029974816    7.67700412178453    2.55468761343763
C         0.55423007008074    4.39993731888118    1.01312076758577
C         0.43338998150211    3.04294811627609    1.23271220012868
C         2.60285995657706    0.54896176278138    1.83002993027844
C        -0.77336463628464   -1.90465437366033    4.81062653425283
H        -1.62668941236062    1.01839873823773    5.44320131613758
H        -2.73365221845242    0.38611397229303    4.23717068124152
H        -2.05181828129606    2.00815540074344    4.03658527798290
H         2.64760824676288   -1.90051355327401    4.26672267797313
H         2.73810783608330   -2.20667097506492    2.53324099782200
H         1.57792002076252   -3.09360733527520    3.53304079904945
H         0.13138247827089    3.08069771069403    4.59907891271081
H         0.34125952908100    5.48363262553746    4.20237257362420
H         2.22361570235811    6.50457353627189    0.36534642388810
H         2.51917497199989    8.91150434969154   -0.01321311083625
H         1.16977519679550   10.54185659890828    1.25640529333883
H        -0.49136487048567    9.74339601045721    2.89760540164496
H        -0.80598338033348    7.33614640028997    3.26491004702178
H         0.66052304071550    4.76736058902826    0.00347837472167
H         0.43682358000658    2.36009860660873    0.39669164171964
H         2.89391859806802   -0.19944494009290    1.09672115294470
H         2.52482819816313    1.51291517349490    1.33606122210902
H         3.38635145210145    0.60347770691190    2.58632647273074
H        -1.85651674209140   -1.82988213598291    4.85078733911734
H        -0.49659538676160   -2.92173456922332    4.54675325357614
H        -0.38375029441256   -1.69627525847680    5.80782080337528
C        -6.81548071985615    1.03416153152135   -0.27553602555425
O        -5.48452864735505    1.11699841125119    0.21637955913283
C        -4.75152482478870    0.01666219602391    0.31840967014542
C        -5.14535402788718   -1.28290022301962   -0.01483443149828
C        -4.23419917170070   -2.30937719478012    0.12286123261987
C        -2.95683553704625   -2.04548041035224    0.61494335426042
C        -1.91154771526612   -3.01796251528497    0.66173590699017
N        -0.73033959728828   -2.62285499253839    1.00800068681912
C         0.33812107185662   -3.53179420892050    0.97610062224558
C         1.51919021378919   -3.17150200849065    0.32531965946785
C         2.57135175038355   -4.06711012248182    0.26049166937327
C         2.47138296222209   -5.31505913315773    0.85484985448822
C         1.29819342686686   -5.67124077267789    1.51554585884664
C         1.13810571836403   -6.99666054157353    2.17304422544544
O         0.14663973755393   -7.32008328164352    2.78852449200298
O         2.18829291393362   -7.79245081779898    2.01954448547524
C         0.22836278857738   -4.78386919426207    1.57023220518385
N        -2.58419915086627   -0.79393402056550    0.99853502794591
C        -3.44240380227221    0.19281073637475    0.82198988922020
Br       -2.93146060439648    1.95710142711363    1.22403086643820
H        -7.43257542062883    0.40676797137204    0.37081744291574
H        -6.83068642116848    0.65281796319369   -1.29873292607802
H        -7.18877715446459    2.05557305299193   -0.25992685889587
H        -6.13450676377328   -1.48029037356738   -0.39402018530555
H        -4.49646336597267   -3.31609088094525   -0.15868182677035
H        -2.09783364957599   -4.03539995279674    0.33602516554539
H         1.57690339740796   -2.20259034125966   -0.14750346966613
H         3.47653660904498   -3.79044011137159   -0.25700335932834
H         3.29166499998820   -6.01287434404798    0.81336184579253
H         2.06000112957137   -8.65552912497591    2.45250887229385
H        -0.66700311540632   -5.07802795809673    2.09735346594171
Cl       -0.14887448937566   -0.08461629108545   -0.62124853872788
