74
 energy: -118.195185596472 gnorm: 0.000202765869 xtb: 6.4.1 (afa7bdf)
Ir       -0.04022093141147   -0.94793139679609    1.50799163271238
C        -1.29432477805152    0.39177602454548    4.32173252816378
C        -0.09615696638731   -0.03365510472882    3.54491609703878
C         0.54989201845378   -1.30298924420514    3.63504643321537
C         1.74277608225079   -1.25861894920678    2.82181703377912
C         2.83386511555469   -2.27586319991870    2.81769244535004
C         1.84397087386403    0.04645816414057    2.25467167345474
C         0.67598728103208    0.79464328598879    2.64862689897613
C         0.47849874208841    2.22823068062995    2.39290118426299
C         0.32184324433023    3.12006581912220    3.45272966302796
C         0.18985360446918    4.47330076561892    3.21164011657464
C         0.20916089749003    4.97516359460335    1.91093846955780
C         0.08940443288295    6.41891510836565    1.65864088448541
C         0.88978623075517    7.03622898328022    0.69925725777758
C         0.78500650149625    8.39482912280622    0.46421831389954
C        -0.12574500652090    9.15715868317153    1.17770337253513
C        -0.92833185964801    8.55290171310832    2.13179934592619
C        -0.82020032540100    7.19558819762525    2.37342011331594
C         0.35574525897863    4.07744452070724    0.85408081157870
C         0.49037876275883    2.72405542905773    1.08929352066255
C         3.01111357457637    0.57737648465728    1.50253880092040
C         0.16666543959835   -2.41264144314942    4.55074335443144
H        -0.99897778703479    0.59449088944820    5.35163975730737
H        -2.04941091743127   -0.39041773745113    4.34327961663729
H        -1.72763367604022    1.29565544881578    3.90303303606118
H         3.54843321567827   -2.03156667674133    3.60488174729002
H         3.36339599696940   -2.27451647178185    1.86923858596341
H         2.44970050624791   -3.27382290461944    3.00828077251534
H         0.33841089704745    2.75628903835690    4.46819559148437
H         0.09697558367055    5.15563430859387    4.04314190353689
H         1.61513214309316    6.45231647982796    0.15124164417251
H         1.41710187733355    8.86236972315424   -0.27693883302820
H        -0.20759568021788   10.21818402717090    0.99236206144768
H        -1.64105836906457    9.14351123649300    2.68907110024126
H        -1.45940408482903    6.73060414800333    3.10966731670806
H         0.35088852623694    4.44411160399895   -0.16127606897097
H         0.59088443112450    2.03841925153833    0.26084833333577
H         3.93023351321633    0.32304948633369    2.02795824455153
H         3.06331247413712    0.14430460003351    0.50434500732932
H         2.93747726908775    1.65715506974789    1.40125948232347
H        -0.89843568018710   -2.39785231022743    4.76304673450800
H         0.43622354364788   -3.37955409316193    4.13314242237723
H         0.70156901013342   -2.29417635370303    5.49376174073624
C        -6.46860362986875    0.99496431886303   -0.76330874856281
O        -5.76713498029248   -0.24069505291778   -0.71058070775059
C        -4.54690999919493   -0.28276313373739   -0.19582944573655
C        -3.83669936361288    0.81152646787122    0.32488900221434
C        -2.57039695568029    0.61767828396001    0.83476150801975
N        -1.97540245509958   -0.57065609673473    0.87463738406026
C        -2.63771105170478   -1.64067109325508    0.36229410240996
C        -1.88410807845108   -2.86357738255316    0.41031787522842
N        -0.69120006473672   -2.79705050136161    0.90354084332744
C         0.11424643081822   -3.93801207284959    0.98606771262010
C         1.36750226084278   -3.93439542795713    0.36849074760908
C         2.17174955840049   -5.05124233947350    0.44158396968193
C         1.73071970871988   -6.16837481958622    1.14840499897623
N         2.56978851104371   -7.32903231577285    1.22647074730061
O         2.15261013893517   -8.29700788400148    1.83639296360755
O         3.65618775148336   -7.28740987163387    0.67848241261675
C         0.48787984271339   -6.17693541429069    1.77659998815050
C        -0.32227510100784   -5.06324915114101    1.69114209323241
C        -3.90936686057019   -1.53272846068589   -0.17295110992869
H        -5.93953386557740    1.71949621381709   -1.38561509960603
H        -6.62301358157307    1.40042893510549    0.23859384596557
H        -7.43032667389116    0.76125974197835   -1.21412930669041
H        -4.25519858214063    1.80364315018878    0.33324555553779
H        -2.00731860843380    1.45428391351646    1.22336234159303
H        -2.28927723964054   -3.78622086373253    0.01017817468777
H         1.67839747678648   -3.06031748684534   -0.18228422196724
H         3.13741278468313   -5.07905871799890   -0.03850963772189
H         0.17439669669139   -7.05699520377341    2.31682616225268
H        -1.28504465593944   -5.05158920096059    2.17742432716705
H        -4.41576779786344   -2.39242067134665   -0.57963777786371
Cl        0.55570139819251   -0.60829286567722   -0.77014984854633
