61
 energy: -94.282439410219 gnorm: 0.000617425679 xtb: 6.4.1 (afa7bdf)
Ir       -0.92073672393459   -1.21376422384251    1.35041375509452
C        -2.30818983459719    1.05039182926027    3.55134822473959
C        -1.13855604092273    0.26108647382947    3.07317240660220
C        -0.76491745942230   -1.03989332978980    3.58176286321195
C        -1.47695960646718   -1.75981354488903    4.67584650308970
C         0.55323514312053   -1.34338707468709    3.09108067285366
C         1.45577524393549   -2.42024387791209    3.58189400147363
C         0.92563106219564   -0.31270543156647    2.18111078667557
C         2.26000920471804   -0.14469953431033    1.54219126752435
C        -0.12163638914658    0.69728076532978    2.18687375696605
C         0.00652785428578    2.03322204851768    1.53936707682851
H        -2.05201142536657    1.50074203272665    4.51144899591435
H        -3.18127606338277    0.42078448647429    3.70560508548067
H        -2.55659979806621    1.85546272261777    2.86504103919795
H        -2.55228552944835   -1.62467764790969    4.60162292718323
H        -1.25571625135360   -2.82284863937797    4.65911049239374
H        -1.15171666971033   -1.35932110309996    5.63679033983929
H         0.91454726560613   -3.16261025524719    4.15823983337775
H         1.97096091252365   -2.91643756809366    2.76268799110267
H         2.21112996579074   -1.96975971489641    4.22654794315645
H         2.15748352898584    0.25170836672303    0.53471636491993
H         2.79313228984762   -1.08965628329233    1.49581441545721
H         2.85056238196026    0.56289494955214    2.12499194773393
H        -0.93655482651187    2.57155933868989    1.53836050443166
H         0.34825153646637    1.92849217213024    0.51173437625652
H         0.74492310395258    2.62529591407196    2.08045321800226
C         5.50322309833396   -8.49793378009752    0.80627074095726
O         4.60934513524994   -8.32801255244856    1.88715190243999
C         3.60369110069878   -7.42991721620419    1.76699345200700
C         2.74300618456309   -7.34485026404496    2.89023965121932
C         1.68666998206774   -6.48674785404752    2.89630302297920
C         1.42306330190443   -5.65470140228806    1.78354833841200
C         0.34080237270732   -4.75807113762433    1.76162194616519
C         0.10653672862670   -3.97464147889343    0.65465883989094
N        -0.99284171204630   -3.09727826077282    0.61781624272677
C        -1.99371176334795   -3.37070302149242   -0.15881241911141
C        -3.05343275698551   -2.41330148115549   -0.20912345369701
C        -4.19347829388636   -2.52851760296625   -1.01042668433409
C        -5.13731976706740   -1.52476777601789   -0.99532071514424
C        -4.90458043827714   -0.42236688181156   -0.17215282914355
Br       -6.15940936406912    1.00517723784596   -0.07961293682921
C        -3.75330619090373   -0.36124612932947    0.59780708176981
N        -2.84812486570216   -1.33267379563227    0.58992245172579
C         0.95501780776635   -4.05757010270465   -0.47084322499284
C         2.02133360913016   -4.90844589929883   -0.45849264277137
C         2.28602655337258   -5.73371942103312    0.65772688105392
C         3.37230288000420   -6.62930181735732    0.67174750521915
H         4.97843083856909   -8.83511785248636   -0.09228010608558
H         6.20637695595432   -9.26509372211813    1.12450684510674
H         6.04606553577904   -7.57325092314573    0.59098377075235
H         2.95594848778225   -7.98557429277121    3.73110590898407
H         1.03641684955668   -6.43419993190957    3.75591004924546
H        -0.33227351972278   -4.71652820269251    2.60352272149253
H        -2.02492905298788   -4.28048927887897   -0.74660794475473
H        -4.31590942254805   -3.39476661170688   -1.64039112045501
H        -6.02691190724910   -1.58069163979070   -1.60221048665343
H        -3.56789776591874    0.49200735708877    1.23219322919699
H         0.75368129286659   -3.41977802868770   -1.31705654320185
H         2.67511405940914   -4.96642770683203   -1.31545151945450
H         4.00789342476032   -6.66925601531004   -0.19855419534612
Cl       -0.38564125345853   -0.57343238439992   -0.88923054887553
