63
 energy: -86.553848895217 gnorm: 0.000428917819 xtb: 6.4.1 (afa7bdf)
Ir       -0.40540670592672   -1.18462710906203    1.26881969097467
C        -2.26522914287446    1.08992152237571    3.08929798591812
C        -1.03852805365449    0.26326898711317    2.90851871889267
C        -0.87820771511853   -1.06834605421360    3.44315124096971
C        -1.90161526104066   -1.80033445188309    4.24460355804594
C         0.51741469538137   -1.40591810542599    3.38549043521269
C         1.12524993696722   -2.53493873711488    4.14649743791892
C         1.18183218780884   -0.38003301999282    2.65661704848534
C         2.65158727836051   -0.20596934610159    2.46653625881789
C         0.21258321102916    0.67070271991823    2.38174790086414
C         0.58213570754950    2.01545324404765    1.85270699648552
H        -2.31098269137673    1.41106463273569    4.13095478766271
H        -3.16699173984909    0.52071455327163    2.87726976149616
H        -2.25394650591942    1.97380618933034    2.45986995053626
H        -2.90275457153040   -1.62179534366969    3.86150238130440
H        -1.70743164971300   -2.86928353395474    4.24441031066972
H        -1.86942658405872   -1.44972433610004    5.27712828922231
H         0.66511754848773   -3.48894675466897    3.89779736693746
H         2.19698661689752   -2.59935559291052    3.98379194338989
H         0.95549076917250   -2.35697475478733    5.20925546450676
H         2.86434092206838    0.18552342942772    1.47457898213136
H         3.18836407732036   -1.14078030093940    2.59284438523926
H         3.02541372662430    0.51037330174004    3.19900603242067
H        -0.29336909707225    2.64239084641080    1.71173869645638
H         1.10680819432783    1.92457999300842    0.90300254742565
H         1.25159516096253    2.50806945635858    2.55789439316815
C        -1.57403827821927   -3.59016562700993    0.35811674041845
N        -0.39557415032000   -3.12610830897522    0.61215702287056
C         0.73648162780416   -3.99034870168103    0.32328751388714
C         2.06295687452953   -3.41255206162979    0.79488918431674
C         3.18251029946095   -4.44901351703421    0.62383439908784
C         2.96255020869718   -5.32010984007142   -0.61894457211282
C         2.21394389187953   -4.52562809387477   -1.68255600819436
C         0.79420779028221   -4.19693395607288   -1.21038646828263
C        -2.65682963302121   -2.65475530710301    0.27304854134929
C        -3.98458635606417   -3.01277400871272   -0.02770874621196
C        -4.90561625481941   -2.02517856149535   -0.24064764500299
C        -4.48869236025636   -0.67605126987569   -0.24474393208462
C        -5.35868774309117    0.38604056029018   -0.56118325476761
C        -4.89341909425262    1.67178879429740   -0.63061056995690
C        -3.53551509242903    1.94557147403154   -0.39922333888437
C        -2.66946528756849    0.94325769983109   -0.05364615911918
C        -3.12427210865905   -0.38469324331745    0.05200246794076
N        -2.26516826522655   -1.37750603774041    0.38716017557147
H        -1.73505902076797   -4.62840053656215    0.08945989504557
H         0.56887465343591   -4.95427768826755    0.81888478429399
H         1.99451972624058   -3.12997905100442    1.84006814478434
H         2.27520098488552   -2.51838874137992    0.20969169679506
H         4.13423147167257   -3.92338311652111    0.54093068720274
H         3.23773287079527   -5.08836639865382    1.50648728359198
H         2.38421065382220   -6.21022463624890   -0.36370177288425
H         3.92246566894514   -5.65911801104148   -1.00974595494925
H         2.76248566991608   -3.60702520565640   -1.89238193956307
H         2.15862151410840   -5.09361094800402   -2.61213609206559
H         0.11092681171821   -4.99888977047035   -1.49304809173046
H         0.45805686294208   -3.27897448164565   -1.69536192296397
H        -4.24908335926782   -4.05610738170843   -0.07849359183463
H        -5.93969909246713   -2.25906785806612   -0.44136995489786
H        -6.39286978976245    0.16023867463411   -0.77031551411804
H        -5.56216153671926    2.47970756729267   -0.88343912347459
H        -3.17559665086521    2.95739307866037   -0.50361426503417
H        -1.61824287246910    1.13580317180319    0.09176005247136
Cl        0.56804405028874   -0.51087309592929   -0.80172123664624
