82
 energy: -128.425497047071 gnorm: 0.000433144798 xtb: 6.4.1 (afa7bdf)
Ir       -0.21831319343355   -0.18035103122322    1.80540392367789
C        -1.42058100285948    2.02536265161448    4.14191568047697
C        -0.26838973367592    1.27726798787413    3.56160656267182
C         0.17704168170221   -0.02475965064544    3.98896942781686
C         1.43056265566323   -0.29411716345157    3.34319943171108
C         2.35262558293720   -1.40722843304600    3.69858365645535
C         1.69008809073498    0.75723543294083    2.41856087959040
C         0.64341540695716    1.76050842300580    2.58417400116460
C         0.70319085646922    3.13855832803398    2.07199003912250
C         0.75544489938956    4.19152308863058    2.98585793527823
C         0.86064498385131    5.49588345663359    2.54737153360556
C         0.90886104335543    5.79151409162663    1.18574810218377
C         1.02296158705726    7.18160225753794    0.72021127181256
C         1.84942853094745    7.50288214385763   -0.35498241860223
C         1.96115821970547    8.80996160238643   -0.79198798327546
C         1.24630095048477    9.81765375673744   -0.16504209565308
C         0.41995981934310    9.50966027110167    0.90342203871333
C         0.31055045797725    8.20369861176325    1.34465054860683
C         0.85166861437167    4.73587978961396    0.27733527755616
C         0.75510678397190    3.42870672926401    0.71136791504371
C         2.96391493462621    0.96151093033342    1.66941358435468
C        -0.39903220153765   -0.82202333689836    5.10807031703654
H        -1.14570033163830    2.39035746477647    5.13214876574105
H        -2.29177143036476    1.38423949911236    4.25966013898556
H        -1.67799585215752    2.88048283330543    3.52200529935868
H         2.98321138353658   -1.08505101050185    4.52801591326730
H         2.99640146169926   -1.67369840009083    2.86509047137139
H         1.79614246601537   -2.28402611757435    4.01769395353531
H         0.74196702099230    3.98257972295211    4.04480528517176
H         0.92698119334755    6.29601303190127    3.26944153739431
H         2.42342419993176    6.72571724659450   -0.83824807250959
H         2.60965105649301    9.04529497621718   -1.62363507595627
H         1.33316131701742   10.83842817973056   -0.50734230150954
H        -0.14241774718733   10.29159774133292    1.39319272984291
H        -0.34939104850660    7.97125145233799    2.16777396971390
H         0.86492845359630    4.94304418254715   -0.78229328294325
H         0.68524770453091    2.62766291155583   -0.00769580665893
H         3.32560240187833    0.02400003995797    1.25444533301525
H         2.82652580853437    1.67734603548225    0.86423196895335
H         3.72251846038183    1.34905975235243    2.35012407019843
H        -1.39904286968755   -0.48140444262002    5.35753947457825
H        -0.44453456284135   -1.87584813260303    4.84301748708520
H         0.23353212995510   -0.71995594614967    5.98996415616964
C        -0.60574910492155   -6.36261625912172    4.06551526423267
O         0.21742025225127   -5.81428536152634    3.03519462772491
C         0.18629020444306   -4.50137099449805    2.85269476210479
O        -0.52081648960859   -3.74341926363676    3.48195422004969
C         1.14306130616810   -4.06047725697862    1.80045794510231
C         2.30598683489002   -4.78197559000974    1.58949610635178
C         3.28157327661343   -4.34210143110241    0.68827487723094
O         4.35975250929813   -5.13348007155169    0.55563434874097
C         5.38778223200332   -4.75848823030781   -0.34545950787205
C         3.07954672583423   -3.13351243628206    0.01644501420305
C         1.92543025786360   -2.40579368935752    0.22818234401232
C         0.93804513218910   -2.85614060189593    1.10102772453850
N        -0.23991918528686   -2.11039913852178    1.22627122980677
C        -1.38462519178370   -2.63040829479393    0.93311324375546
C        -2.53145469667731   -1.77260412302438    1.03946263043954
C        -3.81690858319095   -2.14814795366184    0.66554096033928
C        -4.84816047476007   -1.20854195719221    0.73969239824154
O        -6.11739555804066   -1.42389963790987    0.41550562733141
C        -6.51398162595060   -2.70167107876590   -0.06389323862380
C        -4.51367634525807    0.08365328828085    1.18893904959356
C        -3.21742074513603    0.37020238964848    1.54140360311612
N        -2.23631873279140   -0.53139366116419    1.48864007090718
H        -0.79761313005212   -7.39499551268806    3.78578809077828
H        -0.07316615830761   -6.32189033988690    5.01697217759319
H        -1.53560918976518   -5.79828730797518    4.14756362590601
H         2.47927889569674   -5.69815368611719    2.12922891577215
H         5.84666611620452   -3.81136461177863   -0.05119291853909
H         5.01055728524012   -4.68783485781194   -1.36864429625984
H         6.12785954088056   -5.55347832889600   -0.28592607093147
H         3.81110448130063   -2.75629936688587   -0.67909485588617
H         1.75550400635818   -1.48567375754823   -0.31050024847283
H        -1.47485147934253   -3.64887123333927    0.57233919228581
H        -3.98383127220215   -3.15160210259246    0.31187699636784
H        -7.58043659956151   -2.61698622982113   -0.25999307739005
H        -6.34006515221556   -3.47361464942514    0.68869114005337
H        -5.99110238531594   -2.95250369562214   -0.98934378844963
H        -5.28235556129939    0.83574543211120    1.24579366919686
H        -2.94723676201786    1.36196540373761    1.87150619332675
Cl       -0.22490581805511    0.30383724099773   -0.54153569110405
