76
 energy: -108.162288520559 gnorm: 0.000761148385 xtb: 6.4.1 (afa7bdf)
Ir       -0.27444408720802    0.24201674746417    1.75838292773770
C        -2.41637632467505    2.45058710468506    3.23908221418211
C        -1.12599310444146    1.69471588678822    3.21693564631049
C        -0.87324920087538    0.45038915532302    3.89712825809111
C         0.53359522438100    0.19803852514313    3.85857420836784
C         1.22913619999517   -0.85261177822280    4.65570181257541
C         1.15750648690138    1.27429459501765    3.13070033403750
C         0.13871176655850    2.24005621466027    2.81216699692024
C         0.34295748853562    3.60182018220747    2.32117225054780
C         1.32370914436891    4.40612133489878    2.90671893625493
C         1.47551683255433    5.72173617081165    2.51994196454092
C         0.67374784105346    6.27331027054217    1.52168152653708
C         0.84369967796192    7.67409415972848    1.10954942377799
C         0.81880941423905    8.02675095916106   -0.23830849378105
C         0.98599769342965    9.34437841984152   -0.62351385640718
C         1.17096444190990   10.33154856173644    0.33092091895684
C         1.19115794051157    9.99240526014496    1.67434172995243
C         1.03410643170846    8.67426008709341    2.06119595988070
C        -0.29477890399491    5.46442666182224    0.92898949315034
C        -0.46903300079865    4.15692424502253    1.33181588400572
C         2.63072624586631    1.47184654282153    2.98775157769682
C        -1.85808040088583   -0.33706622095082    4.69161685740411
H        -2.23121490621327    3.46865119809633    3.57887628412830
H        -3.12610095117122    1.98157130084594    3.91455030277227
H        -2.86502719680691    2.52245337685253    2.25012609151128
H         1.08717399377890   -0.63384392318186    5.71457344838360
H         2.29496005526359   -0.85963735959400    4.45177341878421
H         0.81672798349588   -1.84067520486179    4.46523325622572
H         1.94462307572732    4.01257766780430    3.69546180957371
H         2.23876980657635    6.32888211147652    2.98367486980508
H         0.69040784430846    7.26050662670629   -0.98900880366559
H         0.97335389140705    9.60346999608880   -1.67242254834691
H         1.29811646823209   11.36091936440473    0.02937879493905
H         1.32947087613554   10.75964052391931    2.42229810413271
H         1.03662603445229    8.41948192125306    3.11113334429950
H        -0.93176341103318    5.87449312152538    0.15934716778377
H        -1.21258239502606    3.54667626217144    0.84615243742273
H         3.12920886840550    0.53180378132839    2.76737145605252
H         2.84657830162264    2.18222770694793    2.19390811747414
H         3.04380428770390    1.85609100722253    3.92083620379957
H        -2.85752684107468   -0.27902614882541    4.27004304364765
H        -1.56255895320778   -1.38051172253223    4.75354284381435
H        -1.89429515564222    0.06469222925521    5.70532921359143
C         2.29538224073162   -4.77095655012790    2.62636968041586
C         1.98554860901843   -3.84311440248046    1.45375982456720
C         2.67311432236690   -2.47608270280859    1.56708700323262
C         4.17919682550652   -2.60644006301750    1.30157732395651
C         4.99921255797304   -1.36533279378979    1.63731763916787
C         2.07192957532893   -1.46352876518584    0.56028570809378
N         0.65424887530194   -1.27433246966751    0.71692537340704
C        -0.13477051015382   -1.97735529101868   -0.02417693081260
C        -1.54876365722018   -1.77316328593100    0.09723191771253
C        -2.51071691100126   -2.46885467392927   -0.63961841168002
C        -3.84475477832673   -2.15878527660653   -0.47678785966465
C        -4.17475606384573   -1.14701037008710    0.42377759661110
Br       -5.99090920504797   -0.64362101451774    0.70267533438318
C        -3.17438750458475   -0.49716629644195    1.13222493950985
N        -1.89258916117023   -0.80426717035323    0.97909976363770
H         3.34844264372212   -5.03585901346949    2.66208871378267
H         1.72516173928529   -5.69172101877782    2.52917709653670
H         2.02854924447834   -4.30190063550938    3.57032274960412
H         2.29062038782849   -4.32545759689020    0.52282591113538
H         0.90308812071296   -3.70276655091656    1.42209865068710
H         2.51837225959042   -2.09429725678757    2.57820142474814
H         4.33705634185002   -2.87062795172775    0.25400823985300
H         4.55861943291302   -3.43088617754200    1.90529735613333
H         6.05447557578924   -1.57159038961888    1.47330284781850
H         4.87455314413075   -1.09189735419972    2.68271576465772
H         4.72947684068621   -0.51870191913445    1.01149524593490
H         2.55023794816613   -0.49429378768548    0.70217146151694
H         2.28733986682063   -1.81861993458760   -0.45277061257890
H         0.24637467364107   -2.67604853010508   -0.76161153537636
H        -2.20373784500277   -3.23565315700654   -1.33249548541916
H        -4.61237569739809   -2.67529970781240   -1.03080242417111
H        -3.42466457658290    0.28637227311959    1.83134689855496
Cl       -0.24244179887525    1.27842691181035   -0.38494363278764
