92
 energy: -146.599418575518 gnorm: 0.000417191566 xtb: 6.4.1 (afa7bdf)
Ir       -0.72182436326660   -0.58752999655296    1.46531514275641
C        -1.98650737111891    1.02844394731571    4.17371552676888
C        -0.80878252466818    0.43711176632720    3.48087164378221
C        -0.38583087724993   -0.92323725259919    3.63303402184046
C         0.88414106102078   -1.06920420110088    2.96484406271990
C         1.80764037514307   -2.23037681995553    3.09712387295380
C         1.20857144936618    0.17353995825033    2.35277886538511
C         0.15007501753984    1.11927327646651    2.65736779954508
C         0.29457162166237    2.56617667286082    2.47511881121978
C         0.09748412240428    3.42921013580127    3.55327012586356
C         0.36248344631743    4.77700089566593    3.42959468246608
C         0.83751001075082    5.31054352980717    2.23199383032462
C         1.16381115129858    6.73864499142565    2.12637499687971
C         2.25824710671153    7.16539490339607    1.37601962601473
C         2.57886641129573    8.50756846297732    1.29369555242368
C         1.81115204160574    9.45030187791572    1.95765769654750
C         0.71913348872297    9.03941184931681    2.70428721261087
C         0.39943833039686    7.69645086638996    2.79032590562648
C         1.01710647467944    4.44740712647615    1.15216475992233
C         0.74860394448605    3.09889376620593    1.26903348091817
C         2.50731726793015    0.49685827763527    1.70065034862065
C        -1.00325872938278   -1.92268559234852    4.55139364560402
H        -1.76450464070822    1.11084490150909    5.23841580265992
H        -2.86257895041075    0.39170882375252    4.07142755276797
H        -2.21118886422103    2.01486511200712    3.78118766212236
H         2.47750520808187   -2.04707448998054    3.93852178832743
H         2.41193812917292   -2.35497456686183    2.20274497152698
H         1.26671601520894   -3.15236137810242    3.28871570333242
H        -0.21255075598067    3.03923191078575    4.50919864847356
H         0.23858454145297    5.42034396705186    4.28765150162686
H         2.87590870616193    6.43951081248656    0.86855313647245
H         3.43354605086318    8.82003152481895    0.71114344968162
H         2.06102845492840   10.49908953503484    1.89201367392610
H         0.11278274534495    9.77080050391865    3.21910653592306
H        -0.46631002608755    7.39014908761826    3.35951725363133
H         1.35161558170586    4.84446561902304    0.20601030186678
H         0.87745359054993    2.44986748481331    0.41710428045635
H         2.46435205439433    0.31522136381138    0.62698798285084
H         2.74749955780159    1.54775602153048    1.84787292592646
H         3.30217737689275   -0.11830888460453    2.11505989391886
H        -2.07962801562985   -1.79046875902711    4.61205448475462
H        -0.78492761546977   -2.93786879003877    4.23165567002196
H        -0.58965666260552   -1.78787587823619    5.55143035439165
C        -2.53186394298423    8.34165169068054    1.07632535473092
O        -2.69562961916541    6.94321883163181    1.28991969995561
C        -2.00537470618215    6.12582386372958    0.49028510682510
O        -1.23631385809724    6.51574619863651   -0.35966742682536
C        -2.32443740210981    4.69493623247800    0.72775784080247
C        -3.18667685764720    4.28560033915986    1.74277457789360
C        -3.55068343125147    2.95767775422588    1.84308139505636
C        -3.02626783451476    2.01077309425187    0.96084470399249
C        -3.56622684256646    0.64172648501528    0.91199893541300
C        -4.95179914023986    0.51511045326480    0.76502235545068
C        -5.52155883364223   -0.72030492766890    0.51579588556419
C        -4.68417548095074   -1.81660289840474    0.39935269684493
C        -3.31982736205765   -1.64204242525290    0.61416920843225
C        -2.38488437307724   -2.72716542223219    0.54246001423337
N        -1.15307088553253   -2.48230194808622    0.84130497675824
C        -0.21231821681186   -3.51919411698697    0.80753819498861
C        -0.48358726153119   -4.73715085300650    1.44826764877751
C         0.44175873426380   -5.75262557758134    1.41840601399806
C         1.65938211170861   -5.60466423329072    0.73971604343991
C         2.66821427336106   -6.63694228920901    0.65297663472570
C         2.45214763077736   -7.95484220372181    1.31367717286762
C         3.79740233230366   -6.36464136654985   -0.04242320981710
C         4.04097759851945   -5.09363430177592   -0.68918431834783
O         5.03719160720914   -4.80406593950130   -1.31578868084529
O         3.06530362274141   -4.14181080129512   -0.57320112557146
C         1.91833382558403   -4.37826419904351    0.10212238318508
C         0.99378892466421   -3.33816354094889    0.14823354111208
N        -2.76743774070680   -0.43238716724183    0.89940823833316
C        -2.12888349023254    2.41558479451078   -0.02434910218174
C        -1.79134766999768    3.74928599086763   -0.14334003453773
H        -3.00773278151309    8.83302540927433    1.92018883075641
H        -3.01318730473918    8.63500536948828    0.14151173109835
H        -1.47123131435284    8.59411129230034    1.02414803008094
H        -3.58960104910210    5.01551712749296    2.42584062202101
H        -4.25296674023682    2.65290774856254    2.60437726837998
H        -5.55832398381444    1.40498412559667    0.81531230443625
H        -6.58799822938638   -0.82011297503195    0.39122759171142
H        -5.06669638733568   -2.79527905663418    0.15934202541976
H        -2.70818919538212   -3.70749211536772    0.20993578294501
H        -1.41140350447283   -4.86285879794394    1.98420642655837
H         0.22607532200386   -6.68063907201057    1.92133691276072
H         3.30756374173016   -8.60399883114291    1.15285111427769
H         2.30921435976216   -7.82249224966009    2.38440606439986
H         1.56550514766600   -8.43869026916154    0.90840667277994
H         4.58713973038013   -7.09079397893372   -0.15179635061344
H         1.21061853746597   -2.41226077611599   -0.35969967452644
H        -1.73472941887416    1.69480977622358   -0.72151211288366
H        -1.13500379079532    4.08466999924562   -0.93078511399086
Cl       -0.04007578791420   -0.16446660585546   -0.78003203631982
