82
 energy: -128.138019785761 gnorm: 0.000354671991 xtb: 6.4.1 (afa7bdf)
Ir       -0.82842634123390   -1.05155442656872    1.30542770164514
C        -1.71850155215833    0.73392012693527    4.12240903569753
C        -0.66821237813160    0.06066815218483    3.31140136490285
C        -0.30457052853462   -1.32339945035083    3.45193872888001
C         0.88078482276222   -1.54968602711209    2.67214699231586
C         1.78407358473078   -2.72902962923503    2.77495164694764
C         1.17683882408628   -0.34324210401007    1.96316119227935
C         0.21695081570024    0.66442085784439    2.36959096415201
C         0.35031452758334    2.10057924858707    2.09235630223441
C         0.45083133399777    2.99670348523991    3.15525411787143
C         0.61708459871533    4.34599275361798    2.91891300510311
C         0.68918517446436    4.84130218680408    1.61830515377309
C         0.85691505556311    6.28145282120560    1.37342411502433
C         1.72112239588050    6.74000883893235    0.38135805827906
C         1.88100123397681    8.09550310902436    0.15864885036596
C         1.17534540629631    9.01478601120368    0.91785606220391
C         0.30935022511039    8.56984345412230    1.90360937151515
C         0.15325639472664    7.21508004767456    2.13206357658285
C         0.59615317512217    3.94048925385575    0.55908363326962
C         0.42866139464787    2.59019449807680    0.79043480210793
C         2.42300581190451   -0.09463480546071    1.18690876953174
C        -0.87266228006687   -2.26047574035432    4.46406438143209
H        -1.38947878091301    0.76819667784153    5.16193060249847
H        -2.65530923945815    0.18076271240190    4.09581822474277
H        -1.89325254839839    1.74781878037278    3.77606305093070
H         2.47953313605780   -2.55455787274645    3.59710331139531
H         2.36263528702249   -2.86558404774541    1.86613087362906
H         1.23518646458711   -3.64258220102544    2.98405779225450
H         0.42585004200494    2.63115411815430    4.17016628051156
H         0.71295722034971    5.02542783352187    3.75260601608650
H         2.28599230268732    6.03004285324145   -0.20524865872639
H         2.55980690016513    8.43778756731433   -0.60931775986971
H         1.30034216399982   10.07330467661194    0.74223152635614
H        -0.24657022081381    9.28291853962269    2.49528766574778
H        -0.53556160785288    6.87489331373799    2.89144918383365
H         0.63147988407738    4.30668543917778   -0.45617707554107
H         0.32248640419627    1.91087629652179   -0.04203328378456
H         2.58537368826408   -0.87008629600317    0.44194030791518
H         2.38181636695581    0.86894163485360    0.68755606757630
H         3.27269276934193   -0.09997693194319    1.87070123964084
H        -1.93410801851246   -2.08127702484286    4.61140086526811
H        -0.72332546267730   -3.29465929742310    4.16614959149728
H        -0.36810654449939   -2.10709046654781    5.41860085435480
C         5.59783685739927   -7.79964942225542   -1.49122923673097
O         4.41133547512691   -7.92553163822554   -0.73202102475733
C         3.57489127286221   -6.86823355046234   -0.62062326081234
C         3.80031420870254   -5.60714344950718   -1.21588375680748
C         2.89769796915195   -4.59473790255018   -1.05055706239280
C         1.72611328270716   -4.77439198678488   -0.28546941820116
C         0.79036328219494   -3.74429315361441   -0.10031685830108
C        -0.36376658995552   -3.96556319248649    0.62070039253232
N        -1.30718499757744   -2.94155781858498    0.73015999496246
C        -2.56214971400955   -3.20213291968055    0.54162612903821
C        -3.48409251971027   -2.11259973115105    0.56250900653856
C        -4.82664896075278   -2.23274257285534    0.20469395809798
C        -5.61744794359681   -1.10701974560073    0.10925987640969
C        -5.04194192348404    0.14286607898164    0.35516467195394
O        -5.64712224538206    1.32326342178292    0.27509464210693
C        -7.01693899573493    1.38435249398102   -0.09672309322916
C        -3.68181680347069    0.17245073779700    0.73327791341751
Br       -2.93985704784772    1.87467519621346    1.04341296990317
N        -2.93116655584378   -0.90596964977898    0.86223172711951
C        -0.59705410987918   -5.22988921850739    1.21534223290681
C         0.31520878352141   -6.23181498273127    1.07399984996310
C         1.49479420385028   -6.04569361247632    0.31310069980229
C         2.43179018330166   -7.06913166022664    0.13226183384884
H         5.38002513016828   -7.56632780215790   -2.53714714054692
H         6.08224102113068   -8.77248484664904   -1.43308049999177
H         6.26152163176604   -7.03878777274035   -1.07093881015988
H         4.68555327645515   -5.43733475246201   -1.80758041145923
H         3.07388847102968   -3.63555206348351   -1.51372324600929
H         0.94511330646924   -2.78293675093949   -0.56774416603893
H        -2.90227356253217   -4.19808341929848    0.28234033970625
H        -5.23288835905285   -3.20741238291414   -0.01104812353249
H        -6.65434766001926   -1.19190126278949   -0.17113721525716
H        -7.26892526641632    2.44223404822605   -0.08516763548546
H        -7.16746308245014    0.98193443619513   -1.10083773321543
H        -7.64131562681073    0.85004311221076    0.62221820474978
H        -1.48892963301574   -5.37626403375050    1.80540751508630
H         0.14803548008406   -7.19063294784540    1.54018736611346
H         2.26935224718482   -8.03806894177685    0.57730231710949
Cl       -0.60194238730286   -0.47831730848382   -1.00090545085467
