76
 energy: -126.995584724827 gnorm: 0.000601533624 xtb: 6.4.1 (afa7bdf)
Ir       -0.36465833712831   -0.77162654450497    1.90910382923736
C        -1.89476232920912    1.00285885406462    4.47408442092129
C        -0.65721291021571    0.56637381679248    3.77607300891073
C         0.06326661713458   -0.63589616674630    4.10020230973914
C        -0.29165833741390   -1.57206712201445    5.20517320734995
C         1.31424908212876   -0.60553445424822    3.39605962174386
C         2.50058971760658   -1.45706414875235    3.68199796026633
C         1.30953847359014    0.53987343801779    2.53958268147700
C         2.48964694643656    1.03303094619806    1.77750738717541
C         0.08125764492779    1.27482632058057    2.78513943974587
C        -0.16834060444072    2.64166191587918    2.30657673868414
C        -0.39674890836907    3.66202843154547    3.22752528328191
C        -0.57882789310615    4.95228675349575    2.76805003177356
F        -0.79714975706833    5.93439064778903    3.66815558000827
C        -0.54353015412794    5.27931648846128    1.42478571867417
C        -0.31514241566886    4.24330039661104    0.53613196652408
F        -0.27719558037956    4.52342159842325   -0.78384107696452
C        -0.12532091084256    2.93867055861300    0.94595614807913
H        -2.31691062574590    1.89154760453655    4.01663871447003
H        -1.64774762576579    1.22135180907273    5.51382151111379
H        -2.64514488108612    0.21505227539129    4.47920499878286
H         0.17159999887474   -2.54348370393068    5.05740733794875
H         0.06998022998535   -1.16440504123245    6.14971098198669
H        -1.36796820886867   -1.69711519234814    5.28306775068665
H         3.05359339346993   -1.00242574426340    4.50489192761810
H         2.21634840599024   -2.46188411624291    3.98096422093905
H         3.15982973158674   -1.51629250058825    2.82149628287267
H         2.85801882630010    0.27465627642902    1.09090177671937
H         2.24290040621526    1.92487085319590    1.21012348591533
H         3.29041817038345    1.27056780882169    2.47751463717374
H        -0.41005094858770    3.47036985984964    4.28760739808349
H        -0.68832498717568    6.29139634657659    1.08615919603345
H         0.01990236633011    2.16125561051113    0.21216392993046
C         4.03100755115054   -9.89784223979697    6.68104896796189
O         2.86611111556107   -9.66020875460831    5.91869497644906
C         2.81956384818008   -8.56390266493574    5.11732855802751
C         1.63950145868947   -8.39039577038769    4.38815811276089
C         1.48590420088723   -7.30900650052039    3.55089365420194
C         2.50726821414880   -6.36936244320030    3.39862571560154
C         2.35033543122135   -5.21833456781473    2.49895048766563
C         3.41329784179488   -4.77360638673237    1.71042791502151
C         3.26735776249722   -3.67858382486711    0.87633765156834
C         2.06949563348014   -2.98919678659405    0.82413348150147
C         0.99659462422145   -3.43285814540317    1.59532390969198
N        -0.22544288459431   -2.74428525399505    1.52694888301024
C        -1.31550704402900   -3.39480988674483    1.27959513820103
C        -2.52283456087312   -2.64288398748719    1.14387550160877
C        -3.73618922112752   -3.18745039078668    0.72669322319036
C        -4.81942476112400   -2.36392404975453    0.49943654871502
C        -4.66442865477429   -0.98460149657797    0.66850869500116
O        -5.58557259250452   -0.05171127493804    0.46612512997426
C        -6.88868155212672   -0.42650307010204    0.03953848624373
C        -3.40359021757658   -0.51848362706880    1.10461601046873
Br       -3.22434402693778    1.34695175623701    1.29089214799610
N        -2.37855098336583   -1.30749165710670    1.36521779304087
C         1.13389774886869   -4.54589438376471    2.42014256527253
C         3.68061533626780   -6.55123948816117    4.12430285236119
C         3.83981129971132   -7.62687017620117    4.97881156684604
H         4.90841130609347  -10.02572054111176    6.04041922927428
H         3.84211486203105  -10.82275805280435    7.22244553679547
H         4.21090784259478   -9.08930252886828    7.39558490059163
H         0.85913549433085   -9.12657240949042    4.49758464272775
H         0.57325138901387   -7.20872687838044    2.98398305726509
H         4.35281661242773   -5.30236908855190    1.74022306760984
H         4.09483431458138   -3.35791048295713    0.26256296407307
H         1.93504738204266   -2.13873116364026    0.17442113761285
H        -1.30854828487796   -4.46416773340045    1.10318278008017
H        -3.81482744989824   -4.25102963939841    0.57140214031918
H        -5.76036680998844   -2.77767063502472    0.17537377677026
H        -7.43816757006285    0.50771294888582   -0.05142788980685
H        -7.37163125427533   -1.06722250741045    0.77983912091952
H        -6.85414149289358   -0.92751892572112   -0.92994958871796
H         0.30326596319083   -4.85826566043076    3.03456842671739
H         4.47920727448281   -5.82935172886490    4.04278996895731
H         4.76116653526590   -7.72542801613789    5.53024925942263
Cl       -0.16983727818072   -0.36770576172907   -0.43385190946485
