76
 energy: -113.611805657815 gnorm: 0.000294357948 xtb: 6.4.1 (afa7bdf)
Ir        0.72247629638952   -0.00249055345563    1.26827047965479
C        -1.39879232327408    1.49669550076112    3.40690932919303
C        -0.12289309130186    0.78195592593540    3.15814788536908
C         0.01300382236477   -0.63266685744251    3.33372258360657
C        -1.07792100897513   -1.53922773063074    3.78155895187093
C         1.38553541918331   -0.96989960092028    3.14119371085538
C         1.99428996851003   -2.31035001366570    3.32077205148875
C         2.13365220069424    0.26616506762090    2.92053202704223
C         3.61513874944897    0.36189280894292    2.87716980443949
C         1.20399653908309    1.35422803775766    2.93135258699757
C         1.59455342483845    2.80132621042546    2.90623595012055
C         0.94658170219744    3.61072342847174    1.77399640690054
C         1.50244830058986    5.03232255237034    1.78008176999042
C         1.23544753923942    5.70495210984386    3.12470133406635
C         1.84557488681899    4.89012947723930    4.26209439044132
C         1.29436688091692    3.46672151929867    4.26174629260978
H        -2.24608749839559    0.89261031068815    3.09130389785450
H        -1.43868188408742    2.46114400483940    2.91334611099440
H        -1.49621029476216    1.65637658003041    4.48248776439075
H        -0.75132819083829   -2.57308880936344    3.78123831367850
H        -1.36376373614032   -1.26412776287116    4.79652157782296
H        -1.96175204669240   -1.45315205640046    3.15128866204365
H         2.35381466793275   -2.39311308932767    4.34791750083931
H         1.27178812498620   -3.10211033185709    3.14376311283062
H         2.84484914321733   -2.45286945335635    2.65910129032971
H         4.06084411886755   -0.56517597792061    2.52910900028606
H         3.94388328772661    1.17124156812279    2.23123138529080
H         3.98323101184532    0.55844278209802    3.88506457957157
H         2.67646614537986    2.84744327495969    2.75080912915861
H        -0.13437933265506    3.65598055939781    1.90358670350404
H         1.16046567652194    3.12696484170026    0.81864074207872
H         1.04150357996674    5.61090044042737    0.97772600053772
H         2.57808197702075    5.00645065331067    1.59247753687261
H         0.15810273136190    5.79669340767427    3.27849498009394
H         1.65620886247250    6.71153633064150    3.12320623157280
H         1.62169677806525    5.36426463008902    5.21904958593306
H         2.93148628869469    4.86598558620053    4.14914336784749
H         0.21952509635338    3.49888622468596    4.43177011714636
H         1.75379632169303    2.88856991807428    5.06402058822764
C        -2.22448702244172    3.37545728622039   -1.28998495958961
O        -3.33644086074434    2.87787273829019   -0.56605214539935
C        -3.27672682942657    1.64821312720304   -0.03956288039333
C        -4.39789330759108    1.20584157866660    0.67734463712595
C        -4.36766122946322   -0.04907133774978    1.25702956163195
N        -3.33652679830281   -0.87178784923678    1.17336824863561
C        -2.27350294448067   -0.46891155460507    0.48053937430701
C        -1.15090815950960   -1.39425273709931    0.40599437420860
N        -1.24269854842134   -2.62043820345002    0.63801430676299
C        -0.25316358197085   -3.56692628951151    0.56328342722173
C        -0.35167104092683   -4.66537789369279    1.43299102400307
C         0.58722912145636   -5.66549024110695    1.39560384812879
C         1.64686118848834   -5.63096161850436    0.47518908247723
C         2.65251894162900   -6.66169494269269    0.35891430587646
C         2.62059879558177   -7.84629855644921    1.26209256438872
C         3.61004179544876   -6.51476178662096   -0.58817466931621
C         3.67032509729770   -5.38038253653126   -1.48106694903514
O         4.50928500541554   -5.20310799793715   -2.33947791846123
O         2.70109181901891   -4.42601760827217   -1.33849979993444
C         1.72466475568395   -4.53846470353947   -0.40627607589625
C         0.79028386894831   -3.50903762195992   -0.35698737260612
C        -2.18398274064960    0.78356940904997   -0.13362041495661
H        -1.32658737241514    3.40001263932819   -0.66710003153355
H        -2.49616345452111    4.38771018719887   -1.58029999973829
H        -2.03659137877005    2.77858777801075   -2.18604971457891
H        -5.25506108338467    1.85134057769550    0.76730299316738
H        -5.20640961598142   -0.41611027588917    1.83062545434591
H        -0.14256732530080   -0.91673633840880    0.02559722296696
H        -1.17722496501262   -4.69939130772142    2.12499784922235
H         0.50404398024584   -6.50024267032593    2.07151540014375
H         2.68674335087670   -7.53286214678600    2.30208924838948
H         1.68856542337205   -8.39295664322460    1.13035829366023
H         3.44957772556467   -8.51240230461050    1.04263286714213
H         4.38680561781243   -7.24900065064059   -0.73019112335212
H         0.87426964035574   -2.71143251345347   -1.07875458225643
H        -1.30032578544142    1.05151921313727   -0.69450812896280
Cl        1.65825678239257    0.74481828080587   -0.65259805144060
