80
 energy: -125.463522613298 gnorm: 0.000212226237 xtb: 6.4.1 (afa7bdf)
Ir       -0.87608092823663   -0.16427907316801    1.19000223376046
C        -1.04507032972260    2.93257640178992    1.93014056644435
C        -0.57452769969041    1.57889315063484    2.38533886603936
C        -1.26010705033013    0.65442081439023    3.20293093867579
C        -0.25910605602655   -0.16770019076358    3.92945268585712
C        -0.66556130850808   -1.23938742702509    4.88095341190045
C         0.98763527259705    0.25212889639722    3.63922978314276
C         0.92908795283382    1.36504765772127    2.61049323267305
C         1.69211759467836    2.60633468820867    2.95344283324844
C         1.57056835759287    3.09657711759548    4.25193370263884
C         2.18769057628722    4.27501549809804    4.61710124822919
C         2.94531169026417    4.99866335392769    3.69712923217371
C         3.59123738494953    6.26183923211672    4.08483893314406
C         4.88208201126847    6.56405513264004    3.65627019409566
C         5.48669872499683    7.75115447597785    4.02751338704879
C         4.80967021498132    8.65880769858417    4.82575191146776
C         3.52388300946448    8.37053830338550    5.25361093812148
C         2.92031683427977    7.18115037071263    4.88924085913153
C         3.06683552901004    4.49940108237715    2.40314713892672
C         2.44463307357838    3.32150130958526    2.03288394523958
C         2.30249365154817   -0.24519115767203    4.11868975419871
C        -2.64004420446381    0.79607947798612    3.77035972344688
H        -0.89923105802547    3.65961423799183    2.73009622022550
H        -2.09594331370987    2.92378948314821    1.66050548469737
H        -0.46967849016765    3.26753295829985    1.06961659439933
H         0.15526527635653   -1.92292722038193    5.07656508000577
H        -1.50801633153822   -1.79754443102702    4.48230516496083
H        -0.97044799311924   -0.79973038107687    5.82986484494880
H         0.98222244688732    2.55114116631341    4.97427664992484
H         2.09535856912227    4.63312681480276    5.63108323299287
H         5.42408508440623    5.85633868676804    3.04591664607322
H         6.49079514818760    7.96985203147154    3.69393172447386
H         5.28200518471896    9.58674992859696    5.11284635346275
H         2.99000175056833    9.07677906383781    5.87289960713768
H         1.91177087313261    6.97197921651397    5.21422966451111
H         3.63491831609535    5.05225721294924    1.67026327989242
H         2.54996584095974    2.96647380324008    1.01911715927465
H         2.94274130762180   -0.49238359955857    3.27175160488693
H         2.80866999022500    0.53109840310310    4.69241640929349
H         2.18667999097355   -1.12161791846289    4.74835978260940
H        -3.14288450313251    1.67380047508712    3.38074619746169
H        -3.24894825282745   -0.08441457235681    3.58356087728134
H        -2.55202321467263    0.91218236482028    4.84950628729417
C        -6.75763083272201   -1.88041368879899   -2.18391229528514
O        -6.45437671128106   -0.79060283078053   -1.32735821081189
C        -5.24679777247271   -0.71621526030319   -0.76808492893154
C        -4.99549814996984    0.39363830533796    0.06420544918725
C        -3.77934353296997    0.52689371146855    0.68070037950075
N        -2.77286578560347   -0.35170527599125    0.54832807742411
C        -2.99202014796790   -1.41273215660118   -0.28755727408243
C        -1.86026527290242   -2.26196354211567   -0.45478364978382
N        -0.76783327537566   -1.87352394146435    0.14529833111391
C         0.40141405738256   -2.62911500851539    0.04728958836949
C         1.18416070027482   -2.80499997627671    1.19766693444839
C         2.33913812115567   -3.54396052776795    1.14502531419293
C         2.77331267574048   -4.12403442237486   -0.05613755071904
C         3.97526474821595   -4.91416474957843   -0.18678819019070
C         4.84010614502143   -5.16677034932672    1.00082526071967
C         4.27947830033641   -5.41482292424385   -1.40792009777824
C         3.46044742759792   -5.19380810950967   -2.57760456720869
O         3.69156922206895   -5.62068853824104   -3.68971196211100
O         2.33086652392061   -4.44177342995444   -2.41184928186151
C         1.98986591740007   -3.92834143463114   -1.20641880837566
C         0.80954164576827   -3.19250138866836   -1.15383100254947
C        -4.20805904857717   -1.62505105804058   -0.93761364809589
H        -6.09551737776554   -1.89310137338670   -3.05283560890815
H        -7.78200766746583   -1.71643080674525   -2.51069995378441
H        -6.69225701870036   -2.83051062793023   -1.64888655123464
H        -5.77263665077246    1.12479377595970    0.20896365532307
H        -3.59518737401370    1.37340987471946    1.32028508100134
H        -1.91218300825500   -3.18122349380762   -1.02464193060410
H         0.84930343653213   -2.37642698234288    2.13072474250003
H         2.92360187857896   -3.68299711459466    2.03913912493805
H         5.19804162015221   -4.22596350319693    1.41460006494930
H         4.27566850131101   -5.68651005215301    1.77300443025150
H         5.69577757599984   -5.77536329960484    0.72399851298275
H         5.16083497814797   -6.01363454208737   -1.57378271773359
H         0.24956464399691   -3.04968227234867   -2.06394452336885
H        -4.30234384552423   -2.48843685687703   -1.57442901739985
Cl        1.48974942905029    0.58178633324545    1.05302343869683
