86
 energy: -118.189342690200 gnorm: 0.000340260466 xtb: 6.4.1 (afa7bdf)
Ir       -0.73236985831442   -0.74312781741051    1.33820706526149
C        -2.15199095004556    1.65791533901561    3.49690965175624
C        -1.03391656581532    0.76218030104230    3.07730537834002
C        -0.93695387374806   -0.60192788963622    3.55517766231502
C        -1.91621698546724   -1.25540131976132    4.47080985009323
C         0.38331498910450   -1.07556111883260    3.28597890171141
C         0.98537081664012   -2.28959682424249    3.90678557029890
C         1.03732897715516   -0.09310352120275    2.47891896362715
C         2.47217657314016   -0.11943640310465    2.06251408622617
C         0.17350340450268    1.08176103491535    2.40996049839740
C         0.68145771829813    2.42466980007177    1.95966207230409
C        -0.19794147954449    3.17532730634530    0.95480146950627
C         0.48762097229505    4.47405391131690    0.53828854354105
C         0.75149010943448    5.35671036501761    1.75560496931319
C         1.60641512491511    4.61253242847656    2.77781300854338
C         0.93534725851617    3.30681945767339    3.19490753244950
H        -3.11930601112073    1.19976463725204    3.30095843943495
H        -2.11657507662652    2.62121569804500    3.00211078536672
H        -2.07276221579753    1.81965625885148    4.57299048352055
H        -1.83096396409186   -2.33765593907306    4.42759765832155
H        -1.71576555370268   -0.94049472922698    5.49584645488464
H        -2.93564135725960   -0.97181764212726    4.22457064211747
H         0.33913524375628   -3.15939501483993    3.81160541208088
H         1.96331405495991   -2.51448571978309    3.49148106342516
H         1.11438538596975   -2.09293634441674    4.97203339603547
H         2.85611677683138   -1.13517651059438    2.03999411950533
H         2.59635569631477    0.31133149919757    1.07163599041174
H         3.07084535911074    0.45955830535956    2.76631129179097
H         1.64479877068244    2.26147766629346    1.46755538112411
H        -1.16520769191816    3.42269048971081    1.39310183102285
H        -0.35981010210778    2.54816579935627    0.07690885353386
H        -0.14006964436858    5.00697935495943   -0.17885939937788
H         1.43372310446510    4.24600207617212    0.04234539278963
H        -0.19910977649943    5.64126035637413    2.21379765682161
H         1.25715425013675    6.27384095595163    1.44697120491721
H         1.76444078779323    5.23979392641355    3.65774137775494
H         2.58538611679996    4.39942083496673    2.34211541829880
H        -0.00954348780704    3.52956555576249    3.69135847063685
H         1.57045558683797    2.77394409232997    3.90529685123094
C        -7.86623819412722    4.66982298145975   -0.37335351567934
C        -6.53825008515198    3.99420889264586   -0.06948510428266
O        -6.71649451592685    2.59267241044992   -0.24725645656876
C        -5.69362754919836    1.74947807999593   -0.05189154734493
C        -4.39028068794319    2.14093187311084    0.33471477256730
C        -3.41210378080554    1.20784498093276    0.53496886158603
C        -3.65715862727467   -0.16446412847726    0.34874626459238
N        -2.67567302592842   -1.07080562533121    0.55274643830039
C        -2.88737712276193   -2.34616030938195    0.20156253330088
C        -1.72817257199925   -3.18162399534078    0.28274027469583
N        -0.62631056536141   -2.65546055705264    0.69751229564164
C         0.58066164322820   -3.44363381058846    0.64582336891459
C         1.42969056031791   -3.09150583290132   -0.58505295944204
C         0.74636189424139   -3.48114104915492   -1.89873704342630
C         1.67796654413396   -3.24741375381028   -3.05621126455505
C         2.34603668527289   -4.30310202521372   -3.66175156302762
C         3.22067415861224   -4.07553894240842   -4.71091112627655
C         3.44060496001138   -2.78573030772508   -5.16318243509439
C         2.78090104067531   -1.72572991284794   -4.56215618638561
C         1.90548265810623   -1.95574526331329   -3.51630900948955
C        -4.13705183006766   -2.81047000268674   -0.26062675122366
C        -5.17440064162992   -1.93285137018739   -0.37471326507227
C        -4.95573961255049   -0.56257545696887   -0.09754661583696
C        -5.94975316222706    0.40394884151221   -0.26672990026841
H        -7.76513341543686    5.74428371639859   -0.25216459943219
H        -8.17024375229987    4.45470491511828   -1.39403227759219
H        -8.63552153972046    4.30597656798221    0.30200102645329
H        -5.76300581115489    4.35981451706279   -0.75417145034861
H        -6.23561268413586    4.20118823468602    0.96451882717274
H        -4.15615314065605    3.18499621948015    0.46424396449468
H        -2.41037331912620    1.51249734277997    0.78926209650867
H        -1.77901361749197   -4.21513220424246   -0.04218049948623
H         0.32490242961902   -4.50759022295070    0.61508493942827
H         1.17105155696735   -3.24429899495645    1.53824728953513
H         2.37973161381335   -3.62064477009985   -0.49918463217488
H         1.62938218507343   -2.02045191788097   -0.59246309466302
H        -0.14922897343818   -2.87085074929380   -2.03099602795871
H         0.45848119612811   -4.53390215724956   -1.87045985223578
H         2.18043506966809   -5.31400524709074   -3.31635802730213
H         3.73158872024916   -4.90619077690057   -5.17691244913260
H         4.12249800365955   -2.60689523044904   -5.98221296235372
H         2.94941421539867   -0.71764912004319   -4.91304112626467
H         1.38781840503427   -1.12876506557686   -3.05262284238609
H        -4.24763576148811   -3.85340463057969   -0.50819744090858
H        -6.15094983637245   -2.25589092231154   -0.69959456732859
H        -6.93404272105676    0.10912502970405   -0.59333012795230
Cl       -0.18626647884338   -0.00722290734283   -0.85312523102454
