77
 energy: -124.443513657034 gnorm: 0.000770824609 xtb: 6.4.1 (afa7bdf)
Ir       -0.33155717313404   -0.30073309844663    1.58300422454899
C        -1.48518582877117    1.48331972837373    4.26380030922512
C        -0.34579912258302    0.82255526683121    3.56900510412940
C         0.04626423655811   -0.54500420899252    3.76383588118328
C         1.29989869724075   -0.74722622593237    3.08277194409632
C         2.20750670373032   -1.91360532894290    3.26150507831510
C         1.62633429081835    0.45187232292413    2.39003157154561
C         0.59797455938884    1.43514113741262    2.68672986520439
C         0.71587000242909    2.87471458969860    2.40553943917647
C         0.70727701473285    3.78083809999830    3.46527277544640
C         0.86649962835652    5.13206956309847    3.23245896943312
C         1.03634349512244    5.62110973249866    1.93790964664439
C         1.20875438237581    7.06078557257590    1.69265960719403
C         2.12445107650630    7.51404299637357    0.74467487155239
C         2.29012424471997    8.86761611884202    0.51629348960387
C         1.53989169084410    9.79138551652704    1.22586418394615
C         0.62502629257804    9.35239814743285    2.16908595586820
C         0.46287509341618    7.99931039481111    2.40359607054378
C         1.04096232509736    4.71089671286226    0.88158227735564
C         0.88504859012637    3.35813756723221    1.10881879926745
C         2.91892442200205    0.72067311349605    1.70383441198295
C        -0.56858712757631   -1.48683378643026    4.74209132167909
H        -1.22234684865211    1.62591348821215    5.31264782886656
H        -2.37869588939365    0.86424016517602    4.23207270397269
H        -1.70799366959971    2.45150231133570    3.82557237437596
H         2.79952016652983   -1.75306343263148    4.16340257135161
H         2.88908288546964   -2.01186338214897    2.42208073178625
H         1.65569148428468   -2.84161858679411    3.38219597206874
H         0.60662649320244    3.42138324500946    4.47731414972258
H         0.88416548003541    5.81646998542514    4.06716883530575
H         2.72574919091199    6.80218718463868    0.19826741004390
H         3.00804661086463    9.20517448072693   -0.21735884514980
H         1.66801816276541   10.84847845506802    1.04438320167808
H         0.03539004708719   10.06895960573461    2.72272341305604
H        -0.26331453894821    7.66702425919520    3.13106565322776
H         1.15062328432547    5.06935425105905   -0.13072825507410
H         0.86664124823027    2.67181040882369    0.27512929982837
H         3.16782961501391   -0.07849579039339    1.00895140081866
H         2.88209713639175    1.66078510088748    1.16198332554440
H         3.71081560063736    0.77802738036031    2.45156814531263
H        -1.64302734985978   -1.33999267691847    4.80795492569951
H        -0.36401623703884   -2.51925096666812    4.47262110357049
H        -0.14156143589157   -1.30497286433059    5.72908184123522
O         4.54049350095881   -4.43320344010159   -0.85133128618581
C         3.78198815063025   -3.57909744323362   -0.45542478864558
O         4.05976096755754   -2.27966369193575   -0.51491837581615
C         2.46032113967288   -3.86805750217621    0.16350185776529
C         2.20444251501473   -5.15867387915107    0.62418021692559
C         0.98883252813426   -5.45104237331345    1.21779401734506
C         0.01632458029364   -4.47368427477776    1.33432674151361
C         0.26254212297037   -3.18475384862295    0.85542526729829
N        -0.71559378066801   -2.18520328075196    0.94080612251733
C        -1.94336010739772   -2.45634845673181    0.62809751714198
C        -2.88550920191515   -1.38279318972625    0.67952562946001
C        -4.24509443126667   -1.54594954434016    0.34321678572000
C        -5.07156277042837   -0.45995548548214    0.36470718116872
C        -4.53095692992978    0.81362422634834    0.65365619763959
C        -5.31793269609786    1.97902658330164    0.62474322356545
C        -4.74421211538902    3.20468222489045    0.85010845499220
Cl       -5.70507624766623    4.64178927698227    0.80479996499773
C        -3.36390979465540    3.31332673031463    1.09704632664245
C        -2.58616817480733    2.19107649437675    1.15897360439320
C        -3.14048615540712    0.91064465104676    0.96157020087003
N        -2.36352750620738   -0.19684123642344    1.03308113065187
C         1.49357194650359   -2.87797044200972    0.28133325751635
H         4.91771559905818   -2.11797301226588   -0.94733998469402
H         2.97006839097090   -5.91071889291535    0.51529640453402
H         0.79642201841053   -6.44495653639826    1.58973032022016
H        -0.92324813327641   -4.69740065120120    1.81635415894495
H        -2.23879575979811   -3.43635280495971    0.27135179760180
H        -4.60639380443603   -2.52772289805324    0.08393612592207
H        -6.12273821945463   -0.55059894228557    0.14048190477957
H        -6.37055736226189    1.89642752138550    0.40622876627933
H        -2.92489884052313    4.28848147735847    1.23009095128781
H        -1.52273293542431    2.28006245378714    1.30944409381672
H         1.66915001755986   -1.88570393019974   -0.10535353660821
Cl        0.09481455894925    0.29215356326274   -0.68558083475436
