82
 energy: -118.240541812988 gnorm: 0.000307160951 xtb: 6.4.1 (afa7bdf)
Ir       -0.30432085907029   -0.53541435118795    1.74282014329506
C        -2.17073069775709    1.00069590256075    4.14951934494243
C        -0.84682937176006    0.47296842105264    3.71813980289204
C        -0.38572866210048   -0.86615756953928    3.94781441784559
C         0.99846840690780   -0.92847426127371    3.55187406269930
C         1.97611723820940   -1.99500976268395    3.91127730963983
C         1.35728805211884    0.33330474000100    2.99583953914248
C         0.20792582871599    1.21027460927807    3.09484987398063
C         0.26401428685964    2.66910060039719    2.91180354491920
C        -0.06285494609165    3.50597062888511    3.97810977307565
C         0.04128124870339    4.87640928341628    3.85015333820267
C         0.47150300581027    5.45479963320751    2.65690058919142
C         0.59567051313291    6.91428625917293    2.52921513711761
C         1.67427825638840    7.47576590982638    1.84805931757518
C         1.79708392434872    8.84802989586459    1.73173286310384
C         0.84226769933818    9.68290950435596    2.28922038750360
C        -0.23457364207149    9.13598836078080    2.96789686959335
C        -0.35627608012309    7.76400664913956    3.08968714700991
C         0.78917526523322    4.61423215906258    1.59092699331904
C         0.69115594817925    3.24288553019171    1.71475481596921
C         2.74296310899156    0.73979962657011    2.63553417214585
C        -1.11694414204819   -1.90354777304401    4.73178388042370
H        -2.17621136322821    1.09886503588726    5.23565519277031
H        -2.97435414393815    0.31954622802157    3.87868029150091
H        -2.36869574410427    1.97375334446776    3.70956100244700
H         2.50757995917901   -1.68070903222903    4.81113840869529
H         2.71733671845064   -2.13201150378090    3.12742968839854
H         1.48567999889287   -2.93924309602619    4.13032936496053
H        -0.36792958783704    3.08003372232754    4.92130285424790
H        -0.18808035429476    5.50767905836998    4.69538691072940
H         2.43324897057839    6.83402396423757    1.42497553231889
H         2.64176914772763    9.26926223345111    1.20563948697498
H         0.93796886659309   10.75479189641218    2.19690145858153
H        -0.98274691581299    9.78286688692060    3.40294335543337
H        -1.20782137017564    7.34793978063605    3.60832281883839
H         1.10140430845767    5.04047697517935    0.64935826072664
H         0.92286564808683    2.61187143676912    0.86936252760274
H         3.19596335295458    0.02568814138428    1.95189130915836
H         2.75340789307327    1.72229865246028    2.17369518361492
H         3.35026830910481    0.77230644246287    3.54099142243563
H        -2.19033787643524   -1.81790269360008    4.58778394296706
H        -0.80334592353416   -2.90559216836090    4.45231968413546
H        -0.90621726306671   -1.76560199311227    5.79298484366758
C         1.53754922375223   -2.51984223032837   -2.53974871878590
C         1.04873067999566   -3.48490583578410   -1.46372065548336
C         1.62401176691851   -3.18822864850271   -0.07094772816370
C         2.83745238237348   -4.06302166112786    0.27411179346419
C         4.02488879582592   -3.86736527309942   -0.66166363911687
C         0.55049220882551   -3.42808475484411    1.02260601567360
N        -0.47285643568394   -2.42103315509475    0.98746381496895
C        -1.59936471429377   -2.70461421754077    0.42685210134252
C        -2.56083679074191   -1.65351592247512    0.27089357551987
C        -3.79947953830488   -1.84958478322903   -0.37151093616084
C        -4.64468588915002   -0.78903811024991   -0.52652496503734
C        -4.23110437640637    0.49060014884133   -0.09323363836264
C        -5.03084744947027    1.63239057757113   -0.28310367529025
C        -4.57411910400050    2.86670956979601    0.10250291393592
Cl       -5.54727968653427    4.27598939529039   -0.14252081606237
C        -3.30023420923547    3.00840981239662    0.67989519168279
C        -2.51720803559176    1.90880347369010    0.89445268133408
C        -2.95561775331985    0.61991530997290    0.53368700929219
N        -2.17360029244206   -0.46508563312383    0.75386250030360
H         1.06794702063547   -2.75343134462027   -3.49310911411031
H         1.27644261892269   -1.49923770964466   -2.27144626961816
H         2.61365120540137   -2.57288338572293   -2.66977803353858
H        -0.03987491100900   -3.39809350367711   -1.43323229602146
H         1.28792596869524   -4.51169920399741   -1.74786923134423
H         1.91647101080666   -2.13497958346909   -0.02893917581853
H         2.53954920453041   -5.11384713884696    0.25672050111989
H         3.16281031786370   -3.83074540171781    1.29037650302597
H         4.88438973477730   -4.41844652374151   -0.28573743911559
H         3.80536151351794   -4.23391303748520   -1.66014189048535
H         4.29490574802663   -2.81606559100537   -0.72768552200288
H         1.03754181737785   -3.39706842290206    1.99548290099857
H         0.11241811665944   -4.41993081582174    0.87336066469378
H        -1.82490079494172   -3.70203217231541    0.06431117735021
H        -4.05703315455985   -2.83461416992530   -0.72448803538237
H        -5.61103589046861   -0.90465175983948   -0.99173451454705
H        -5.99734120770731    1.52425494224234   -0.74871889487696
H        -2.94422497252763    3.99027792997326    0.94625232626117
H        -1.52771532146834    2.02805606431684    1.30210542440091
Cl        0.55945818035149    0.24585745811750   -0.32028976984900
