76
 energy: -112.823438890827 gnorm: 0.000307325708 xtb: 6.4.1 (afa7bdf)
Ir       -0.72653042961967   -0.91695156690131    1.32550712282622
C        -1.93606604569405    1.39628935166080    3.66653380962374
C        -0.86878262774075    0.49310646688030    3.14588168313141
C        -0.78239543126399   -0.89681669834385    3.54793628606351
C        -1.72759612050079   -1.56192457244185    4.48955404711334
C         0.50206430047290   -1.39380838529510    3.15865863048007
C         1.10793733076267   -2.67428211916151    3.61522432036244
C         1.14036173980533   -0.37913610833550    2.38128091710278
C         2.54945236153759   -0.42250261280399    1.89211869199409
C         0.30902933330530    0.81764246069175    2.42192579701664
C         0.82959919136253    2.16905089687064    2.01479107291594
C        -0.07057888641579    2.98183879387095    1.07881509463243
C         0.63048057553735    4.28099917248641    0.69017127041868
C         0.96384935952040    5.10286875531186    1.93288882937500
C         1.83874416306803    4.29517495531582    2.88781178261033
C         1.15023079352984    2.98989520206789    3.27695291146358
H        -2.92484749429178    0.97021218459476    3.51035572207214
H        -1.90347316223141    2.37729858991410    3.20799620859368
H        -1.79051888092603    1.51052449636858    4.74152787424587
H        -1.67187605252383   -2.64339594552855    4.40654999544746
H        -1.46510381926238   -1.28662586302608    5.51176755333482
H        -2.75078156897697   -1.24521527148305    4.30760461816863
H         0.35450275255573   -3.44242486596074    3.76515517719666
H         1.85215239327311   -3.04081457579089    2.91407755811813
H         1.60001060622760   -2.49440876686247    4.57190932058894
H         2.89965894801189   -1.44720544411039    1.81128706421110
H         2.63739640942957    0.05158752834713    0.91768199918218
H         3.19364352501713    0.10996292145622    2.59207141544099
H         1.76935559649550    2.00769971202112    1.47890216934411
H        -1.01330606573150    3.23227456989237    1.56582672949655
H        -0.28120534743944    2.39576823003457    0.18310958953135
H        -0.01199060368164    4.85897452109892    0.02303206067272
H         1.55012415471909    4.05352339575180    0.14642023649835
H         0.03910593705411    5.38926692839396    2.43965295000242
H         1.48000604806532    6.02042619046868    1.64384169977948
H         2.04670728502082    4.88009794238795    3.78609179150213
H         2.79414210931786    4.07762657287219    2.40479264715870
H         0.23054384399704    3.21521476283252    3.81679030017279
H         1.79703831562009    2.41218225180749    3.93974810067396
C         5.25940156726458   -5.50659315314944    1.56163974452447
S         4.17707017228848   -6.16053537591708    0.26448188292258
O         4.79026528690515   -5.92247569177645   -1.02042618125302
O         3.82330480153753   -7.52227625187570    0.58870329602053
C         2.69317876572321   -5.14502355482918    0.38237228923872
C         1.56999643020624   -5.65513798626798    1.00661307218793
C         0.42342377742958   -4.88533427256354    1.08605498685925
C         0.41898497618101   -3.59675714732532    0.54683427012537
N        -0.73394581878398   -2.80094062931924    0.60788458371805
C        -1.87652250558428   -3.29570526188207    0.24983183109772
C        -3.00247039388807   -2.41456278540015    0.26284082263545
C        -4.29146853958023   -2.81766578185020   -0.13970223020272
C        -5.29925836714980   -1.89573279875091   -0.16382886571021
C        -5.00967988219001   -0.54818635588650    0.13912136795342
C        -5.97870531227031    0.47089821456488    0.05688419853736
C        -5.64189473520440    1.77627496792750    0.29588705114630
C        -4.31681464531245    2.11542444171365    0.61488345942968
C        -3.35763668163943    1.14633696668663    0.73265409725247
C        -3.67647723359973   -0.20701095128354    0.51782574023169
N        -2.72029749027377   -1.15863467992935    0.64071104556618
C         1.56338552976017   -3.08691676930406   -0.06877885937477
C         2.69908298280409   -3.87093295748550   -0.15821293118500
H         6.17042904759927   -6.09229033290169    1.55300032599564
H         4.74923088494879   -5.61380199587128    2.50966374394172
H         5.47290554263173   -4.47141569526536    1.33111922126961
H         1.60829288375575   -6.65598926059923    1.40574095794259
H        -0.45677782600694   -5.26936566929569    1.57783052320362
H        -1.96730617854104   -4.31042302818915   -0.12018968909252
H        -4.45742029504215   -3.84668188848505   -0.41320324590435
H        -6.30561041241058   -2.17324969319762   -0.43692285577173
H        -6.98727596688611    0.20190985157144   -0.21694866840061
H        -6.38695569667264    2.55294014268382    0.22316264271754
H        -4.05818054690131    3.15237951063080    0.76125090332241
H        -2.32941027646333    1.39541209872391    0.93809002011741
H         1.53225359549867   -2.09745358500549   -0.49795477705423
H         3.58367638465831   -3.51505752734975   -0.66151726834917
Cl       -0.23628636203937   -0.14828317077274   -0.87692755421902
