80
 energy: -129.058637549939 gnorm: 0.000518830273 xtb: 6.4.1 (afa7bdf)
Ir       -0.57581460564539   -0.57536469537348    1.65494812840338
C        -1.68879088902249    1.06417659196223    4.47772448480766
C        -0.56778456247307    0.49653963174227    3.68227841077768
C        -0.09420015904577   -0.85327266525321    3.80913794338036
C         1.12448687970620   -0.96624601144926    3.05163802108675
C         2.12201518362691   -2.06707846069507    3.15068133888179
C         1.35013979353528    0.28054833607725    2.38954080176105
C         0.29463233776993    1.19259481520770    2.77626549476205
C         0.32891638404899    2.63860658986522    2.52586837709732
C         0.30744114476814    3.52707205780909    3.59964136720504
C         0.41205411777656    4.88616277686104    3.38393956421650
C         0.54148480573069    5.39957987553789    2.09471573183304
C         0.67209916778661    6.84725381310608    1.87313457427807
C         1.57512905829520    7.34176963508221    0.93388898552761
C         1.71083487667006    8.70363815594892    0.73601309594092
C         0.94234073515054    9.59416885768978    1.46788421465420
C         0.03717762545669    9.11357464456793    2.40035799422984
C        -0.09485984094242    7.75233457764933    2.60448440147258
C         0.55661417971738    4.50708402871869    1.02392119136102
C         0.45321041124532    3.14749277332771    1.23425435012461
C         2.59371695416331    0.63774071845415    1.65469426811112
C        -0.60987722496730   -1.85527519318913    4.78575221693929
H        -1.38694032926765    1.10173854619925    5.52532843022212
H        -2.57531280447147    0.43638956132218    4.41745387271750
H        -1.93797281892172    2.06743339141210    4.14752100266072
H         2.81008457433083   -1.83060977043775    3.96367112421739
H         2.70128995800724   -2.15442644254312    2.23587878043141
H         1.65222729566706   -3.02141692132769    3.36952094702703
H         0.24426198944706    3.15020833659902    4.60845985366751
H         0.42018117101541    5.55965229923952    4.22761685102814
H         2.19045167094309    6.65557767536464    0.37027086163488
H         2.42025485849395    9.07298871669727    0.00940163142717
H         1.04861605569474   10.65773480120937    1.31157571266260
H        -0.56778017287192    9.80420774054573    2.97012373280455
H        -0.81325093410394    7.38557913107643    3.32289750755609
H         0.63407494832348    4.88568917444637    0.01564752103386
H         0.43861400182270    2.47228713286604    0.39203083441715
H         2.74120413477572   -0.00464631643856    0.78876671254340
H         2.55940670802237    1.66970498673244    1.31716738359471
H         3.45011049236395    0.50848134163111    2.31679287778481
H        -1.68732431084567   -1.77412207969607    4.89831163768783
H        -0.35660494061722   -2.86648059640633    4.48005497235767
H        -0.15410701397650   -1.67109036285784    5.75917299552492
C        -6.79045726910382    1.55635304820522   -0.11983760986814
O        -5.44811741445329    1.55174553177321    0.34795784413650
C        -4.77852632911798    0.41034273015026    0.41539667769505
C        -5.24576013371105   -0.85460982103971    0.04548460212141
C        -4.39598325405038   -1.93448152775057    0.16019613367731
C        -3.10531480347993   -1.75670132915085    0.65720320450751
C        -2.12645464037274   -2.79522825881170    0.68375367691647
N        -0.91826140881985   -2.48238784089172    1.02334777449150
C         0.08227532329078   -3.46346143702575    0.97955585984930
C        -0.08341485744469   -4.68582761762393    1.64356068023110
C         0.90418704514227   -5.64032399813264    1.58124141251330
C         2.07709383600399   -5.42387358925112    0.84505424151575
C         3.14494833957151   -6.39135457643257    0.72133704407318
C         3.04483892981357   -7.71085913231982    1.40606469958418
C         4.22008699628476   -6.05915155436249   -0.03143647836616
C         4.35027605106431   -4.78671866901283   -0.70646634621867
O         5.29220778647429   -4.44527346373842   -1.38828196851137
O         3.32283472224343   -3.89568155838455   -0.55329035282424
C         2.22699155609178   -4.19358586932893    0.18009558214404
C         1.23982946047268   -3.21483007830464    0.25859394816226
N        -2.65653031843247   -0.53771014975087    1.06640833634075
C        -3.46047180094289    0.49894573963029    0.92166218769175
Br       -2.86580939801470    2.22170592796290    1.38399950898481
H        -7.42823366012783    0.94380092629345    0.52081214481361
H        -7.10741761733924    2.59558079283639   -0.06729918561433
H        -6.84606871751900    1.20761445321881   -1.15322361100211
H        -6.24297516732633   -0.98446470942486   -0.34188250766124
H        -4.71591311426448   -2.91710229941286   -0.14584513895089
H        -2.38144577306604   -3.79511269664481    0.35051137376555
H        -0.97949200648775   -4.86338834512276    2.21734182191912
H         0.77155809925198   -6.57379525176469    2.10247965553351
H         3.93297225531511   -8.30530713879437    1.21406391127887
H         2.17437177630618   -8.25693600286068    1.04675294366075
H         2.94112991182706   -7.57284167538276    2.48059167001652
H         5.04818462697810   -6.73589061120692   -0.17019909888946
H         1.36609015981592   -2.28316879630324   -0.26987347537005
Cl       -0.24173209911720    0.00688864881932   -0.63796936222802
