64
 energy: -111.929572808572 gnorm: 0.000323683788 xtb: 6.4.1 (afa7bdf)
Ir       -0.98324879173182   -0.87054443742335    1.33945421047122
C        -2.45345531165492    0.97562151680952    3.85380816893926
C        -1.24364043071760    0.31140296787519    3.29795006897837
C        -0.86784807693721   -1.05176159745982    3.56096077158502
C        -1.59525556359810   -1.97271962206334    4.47959875135862
C         0.46005892140645   -1.25324511463620    3.04360346094165
C         1.34632564023194   -2.40657763194542    3.35641755151232
C         0.84493985094761   -0.07545622247411    2.34313273249526
C         2.20431774408361    0.20808987593470    1.80739768824000
C        -0.21861045427582    0.90733586109679    2.50940892643347
C        -0.06913311997059    2.34284353350326    2.21412152886164
C        -0.13583838194118    3.25588523355016    3.26543189209452
C         0.06750654155307    4.59721045803572    3.00282243967251
F         0.01061665282442    5.47263453182937    4.02728129774965
C         0.32779437870962    5.07742008191248    1.73169685856071
C         0.37883969055058    4.14635095170253    0.70881719251525
F         0.62249769790579    4.57947743925194   -0.54436135741098
C         0.18862754109490    2.79408997488002    0.92161882643965
H        -2.60317487121642    1.95860118383357    3.41772294104772
H        -2.32816713002437    1.08446381389743    4.93159459013284
H        -3.34472770588647    0.37437063855461    3.68927332923470
H        -1.35274324846754   -3.01007914331814    4.26829870606921
H        -1.30024304055555   -1.75915165010556    5.50757707395500
H        -2.66986661406995   -1.83345796052122    4.40174663735083
H         1.86059257007074   -2.19728640245841    4.29535213185522
H         0.78254360643240   -3.32690619638079    3.47863717334893
H         2.09787009471794   -2.54900024080669    2.58571384281772
H         2.62053379776823   -0.66482376312560    1.31176062905580
H         2.18393974162997    1.03601451402348    1.10549042510332
H         2.86210494163832    0.47257344295097    2.63603860446438
H        -0.31479240549181    2.93349446995918    4.27789180664509
H         0.48406959187792    6.12700620101445    1.54660233557083
H         0.21941629887847    2.10892891942288    0.08789871986651
F         3.10711840098167   -6.24736680362757    0.54092180857209
C         2.06436367100078   -5.39701060903404    0.57901502781684
C         0.87578951944670   -5.81759722701773    1.15417455489617
C        -0.19568033445929   -4.94593419392109    1.18546932432563
C        -0.06622019496638   -3.65881950510004    0.65880451728590
N        -1.14481461269212   -2.76322669852729    0.67421883641815
C        -2.32260626061353   -3.15872427779880    0.30370280589483
C        -3.35926826965893   -2.17475785380134    0.27452960093634
C        -4.67408599671984   -2.45629414605263   -0.14727991418560
C        -5.58281314551419   -1.43946294351555   -0.21656018490802
C        -5.16719209085988   -0.11922402763113    0.06974984007224
C        -6.03719902409415    0.97851503527053   -0.05956138177793
C        -5.58096896843118    2.25135010495109    0.17313366265862
Cl       -6.63973425732907    3.60678251005577   -0.00088972532376
C        -4.23934159582573    2.47534878139462    0.53410840863044
C        -3.38258439893970    1.42173062937406    0.68969245254873
C        -3.81676582278849    0.09728199271830    0.47897310204902
N        -2.96287988531782   -0.94220701112196    0.63310989147039
C         1.14630620074182   -3.25053140567501    0.09994063997115
C         2.21387802407118   -4.12522731070804    0.04748555873865
H         0.80113311861264   -6.81197224611429    1.56395601388265
H        -1.12370945049892   -5.25242240223620    1.64252676454032
H        -2.50151539390286   -4.16932455498949   -0.04420466735580
H        -4.93742699282683   -3.46999196487099   -0.40079396363367
H        -6.60460429557052   -1.62017715509649   -0.51150015389122
H        -7.05823496212685    0.80694044395408   -0.36030683543359
H        -3.89594646662675    3.48658161035609    0.67890517090366
H        -2.34553032540851    1.59750812959054    0.92695889778860
H         1.22340826462136   -2.26065387402406   -0.32353935364889
H         3.15236323276104   -3.83849881943395   -0.39882266165478
Cl       -0.42233984285113   -0.19074683469096   -0.87288499355311
