62
 energy: -98.999148043361 gnorm: 0.000784681090 xtb: 6.4.1 (afa7bdf)
Ir       -1.32186133394838   -1.62889241345194    0.97567303944752
C        -2.42342653844870    0.72949785885543    3.20363840111630
C        -1.31681446718466   -0.09982775994203    2.64880204435214
C        -0.93318269660772   -1.39654949482376    3.15100059873865
C        -1.54710299191060   -2.08097965716168    4.32460632768257
C         0.32049639087164   -1.75713791820848    2.53763365412297
C         1.18169659472219   -2.89782905596256    2.95647807522943
C         0.64004914870811   -0.75800609317576    1.58035533525499
C         1.90527047886303   -0.62478811947023    0.80436871025354
C        -0.38369876364820    0.27500341422385    1.64566980928301
C        -0.28457690520754    1.58567688173205    0.94140582040638
H        -2.09723716165008    1.15418686430186    4.15387765934443
H        -3.31148147903594    0.13181004670781    3.39374763408061
H        -2.67901622713291    1.54995643233241    2.53955383978614
H        -2.61180017890072   -1.87532304141996    4.38796460982182
H        -1.39682405870912   -3.15596063152258    4.27518620221407
H        -1.07605217724581   -1.71733268140181    5.23863426358685
H         0.58638516914318   -3.73715159695057    3.30522074685077
H         1.81688957263274   -3.23913660892135    2.14397992954999
H         1.82083180053604   -2.57158533902411    3.77748989373514
H         1.69274654837982   -0.40384245238692   -0.24024968611982
H         2.50012946505285   -1.53131932112532    0.86617687587783
H         2.48936328711819    0.20228847341330    1.20829493183679
H        -1.21654708586146    2.14011584781049    0.99516640415616
H        -0.02743650355416    1.43761557254990   -0.10511852700493
H         0.50243958834563    2.18440950888415    1.40059198105467
C         2.95947238041229   -3.81059545944744   -1.74590074052516
O         2.83878931142937   -4.94042731801329   -0.89769423063222
C         1.70055894811974   -5.11438095908440   -0.20307876860865
C         1.61888361725761   -6.28864369151072    0.55651909907777
C         0.47369078290797   -6.54160188965332    1.27800876418670
F         0.40150451034916   -7.67432456923019    2.00857946350118
C        -0.61428986447356   -5.68467682011486    1.28530034220794
C        -0.51200403901736   -4.51130918035817    0.54505559235525
N        -1.57014843654631   -3.59047150506851    0.52476403022358
C        -2.76274666698286   -3.97152334817347    0.18829759683797
C        -3.77130119798699   -2.96235631190579    0.15564022963259
C        -5.08865709353986   -3.15847611469163   -0.27485092637924
C        -5.95086413708352   -2.08978185848104   -0.32985875942231
C        -5.48737372507019   -0.81599189420376    0.04337399016206
C        -6.32658126400103    0.35003585247275   -0.00323492045495
C        -7.63549095843848    0.52133583252924   -0.40840328235285
C        -7.92511952900419    1.88866137683995   -0.24546256995951
C        -6.78381177111308    2.45810034217253    0.24579333049507
O        -5.82082362745377    1.54480362600545    0.39395104302266
C        -4.15794994418691   -0.70448866772814    0.47140027015746
N        -3.33088670664863   -1.73389400911506    0.53564541758785
C         0.63554355056414   -4.21711722609986   -0.18743716918328
H         2.91806806644933   -2.87991657423832   -1.17577042739333
H         2.18013921395720   -3.80738895441759   -2.51140126239758
H         3.93506530585337   -3.90587224831532   -2.21710474642488
H         2.44303581819723   -6.98164085306651    0.56556118401967
H        -1.49133870996659   -5.91667240956301    1.86611258669891
H        -2.97401245067349   -4.99272509296459   -0.10653285742985
H        -5.40516802059233   -4.14596754281710   -0.56875287602811
H        -6.96688118192665   -2.22184177766709   -0.66271598100996
H        -8.30349767865250   -0.22880454453516   -0.77736804087253
H        -8.84952320231523    2.38238219761793   -0.46251167196959
H        -6.55029388955649    3.46921154650720    0.51539952896373
H        -3.77221109367005    0.26163779133033    0.75985760188902
H         0.65157638991927   -3.30331363714256   -0.75947734504912
Cl       -1.02739418182522   -1.21638582371571   -1.36019506958039
