68
 energy: -127.427442451224 gnorm: 0.000633701666 xtb: 6.4.1 (afa7bdf)
Ir       -0.59827368420375   -1.22200125000408    1.82186893139421
C        -1.65333291454175    0.60310943813177    4.50460985022306
C        -0.52919201394052    0.06675708896017    3.68984539026211
C         0.17269209121356   -1.15225852744496    3.96140485220596
C        -0.05123951733286   -1.99913945234519    5.16383256315291
C         1.29250494645619   -1.23215933537194    3.05167685215046
C         2.41791767801890   -2.20631934977771    3.11929761405760
C         1.28074386372252   -0.07157668225508    2.22690286970471
C         2.37107413522878    0.33372880710127    1.30485461966909
C         0.11819017755599    0.71854418342522    2.58573067086032
C        -0.13394698072638    2.09467829674772    2.12493279435674
C        -0.14783409422230    3.13525440504154    3.05246619391238
C        -0.33795629591788    4.42907977773002    2.60399273157838
F        -0.34310267247323    5.43035346202300    3.50618063246575
C        -0.52251233332338    4.73724239699595    1.26767281373177
C        -0.50507719613220    3.68111746541341    0.37336642379029
F        -0.68414615950393    3.94108605080900   -0.93691184124695
C        -0.31302780235351    2.37185379835867    0.77188933775219
H        -2.10377505294049    1.47158673614312    4.03328444172427
H        -1.26819517275885    0.90185597073734    5.48015769128044
H        -2.41650394338562   -0.15280027696491    4.67493599055679
H         0.36634725821465   -2.99350234117072    5.04464805430124
H         0.44995592572981   -1.52559677733322    6.00967173227356
H        -1.10725735708641   -2.07139285313567    5.40705458858266
H         3.25577812899043   -1.74069948862579    3.63896939370845
H         2.13826567558491   -3.10302156179458    3.66163967523256
H         2.75545207964331   -2.48140094701181    2.12286722872065
H         2.53943124458002   -0.42270774596654    0.54075444812272
H         2.13968625298272    1.27554262062460    0.81668631723968
H         3.29521654171143    0.44140041946303    1.87260778565352
H         0.01296721488241    2.95591223151436    4.10275091148699
H        -0.66841371047160    5.75252964563853    0.93853006074565
H        -0.31713333669249    1.58045268905266    0.03917838367355
C        -8.46481418210591   -0.11959796335734   -0.88006623271202
O        -7.15384639550932   -0.18394761452312   -0.31746574333407
C        -6.46575895373364   -1.29855720787880   -0.51204966092062
O        -6.85970273548065   -2.25900464155062   -1.12914654670279
C        -5.11260524555051   -1.24006751453985    0.13126014291026
C        -4.66105848089590   -0.11569599877064    0.82747484260286
C        -3.39832212165159   -0.13731867587629    1.38845899177352
N        -2.58957609472366   -1.19291493285520    1.30505715989906
C        -3.01547848263402   -2.28980704495430    0.62382442247400
C        -2.04944753143071   -3.34529922809515    0.56556798932479
N        -0.94895261681025   -3.16757799764144    1.22864237942608
C         0.09724143182736   -4.10605833753694    1.11351411716489
C         0.71108477197201   -4.30552152659938   -0.11849758144132
C         1.79501407482723   -5.16245457838131   -0.21686139399379
C         2.44741807823223   -5.37814618586383   -1.55085744033909
F         2.35859522130050   -4.30800859931625   -2.35901345728251
F         1.88667267601839   -6.40209097073678   -2.23335116031712
F         3.75428825520300   -5.67216578466634   -1.45260807408035
C         2.25649755704848   -5.85061437309266    0.90371091638106
C         1.62749917654781   -5.67856636554070    2.11780097929225
C         0.53822394520755   -4.81521331125609    2.24481494802248
O        -0.05434965726914   -4.70872796401443    3.43737189304674
C        -4.27408562997649   -2.33991725806802    0.02753129273354
H        -9.12080921918927   -0.83353742575095   -0.37974065065004
H        -8.80967278337784    0.89785041574129   -0.71923944679081
H        -8.43073085366735   -0.35535215310503   -1.94474416420442
H        -5.28748326420264    0.75544874882671    0.92535096215239
H        -3.02121605250533    0.72106435717408    1.92358357916710
H        -2.22926918089650   -4.24334953081157   -0.01369260396953
H         0.36565500631177   -3.75067258490676   -0.97699269112852
H         3.10159719567831   -6.51461709185917    0.81623998756888
H         1.95939872212128   -6.21378549826599    2.99248088709248
H        -0.87397599458611   -4.19214746465922    3.40003798876201
H        -4.59843752184366   -3.21542481536862   -0.51390088144439
Cl       -0.24723509085585   -0.93223277664847   -0.51927275386936
