55
 energy: -84.683303078520 gnorm: 0.000706030111 xtb: 6.4.1 (afa7bdf)
Ir       -0.72289588418244   -0.89977633412118    1.46467024508438
C        -1.92062465630846    1.27319544446132    3.99564951680570
C        -0.84418915507494    0.48700703626526    3.33593639704164
C        -0.52544420587612   -0.87974648015022    3.68791684142048
C        -1.23276062386350   -1.67043287220255    4.73593633481054
C         0.75821287828472   -1.19396789460160    3.12896482535043
C         1.59953503094914   -2.36114450161409    3.51195541631874
C         1.14598507968122   -0.09643310043505    2.29620000548580
C         2.46712275231125    0.09572433881231    1.63545254710063
C         0.14996814996316    0.95410708440696    2.44519382304174
C         0.31798953203832    2.33813759451234    1.91986122862323
H        -1.65176310567240    1.39905804240534    5.04498820595796
H        -2.87736869282689    0.75799221171174    3.95984425883207
H        -2.03300458224794    2.25466773799278    3.54774367386014
H        -2.29801446923470   -1.45778304157426    4.73427079157879
H        -1.08264775664662   -2.73694024513158    4.59305695832082
H        -0.83614509048217   -1.40180334643624    5.71573565015056
H         0.99509669961806   -3.23888072114671    3.72308853175191
H         2.32037206469910   -2.60913833480600    2.73873941975210
H         2.14791781911190   -2.10201973851160    4.41842408293325
H         2.34364648480305    0.54212628330403    0.65113770941721
H         2.99957610486525   -0.84499130274028    1.53312772466179
H         3.07051457278270    0.77522881564131    2.23820026736191
H        -0.61802839955808    2.88838313438826    1.94363420627261
H         0.67940810096345    2.31652915500523    0.89425095605537
H         1.05275846149502    2.86707730372962    2.52750169989986
C        -7.03008857946067    0.46961659105606   -0.65576392349558
O        -5.71953935572197    0.62840944867842   -0.13248384000957
C        -4.93496433264033   -0.43500140127279    0.01380417085220
C        -5.25171995176619   -1.75906856038126   -0.30371493424276
C        -4.29128347277147   -2.73235556647013   -0.12152321232783
C        -3.04565684656875   -2.39291296308220    0.40554106087062
C        -1.94444778009248   -3.29860609114613    0.48531297182310
N        -0.79572821813894   -2.82320551076275    0.84669554065108
C         0.33348003241628   -3.65516352686295    0.83165986588771
C         1.50104524505126   -3.19560326513155    0.22376554912217
C         2.61408691962018   -4.01394813747027    0.17031758496597
C         2.58038709751114   -5.27890458302407    0.73850152751871
C         1.42378596246513   -5.72980730687851    1.35658757460316
C         0.29764045345747   -4.92865975234206    1.39975414594700
N        -2.75253227512680   -1.11771716978941    0.78074785653482
C        -3.65431714201620   -0.18228298923900    0.54892254069506
Br       -3.24485086825233    1.61237352607864    0.90311138495050
H        -7.63573788626280   -0.16631965354291   -0.00650941778417
H        -7.45036415221188    1.47241678982196   -0.68061286774135
H        -7.00116636239901    0.05836051273497   -1.66720953084885
H        -6.21747245326202   -2.01472846628181   -0.70788881086979
H        -4.48941285927350   -3.75544969216838   -0.39644950457426
H        -2.05829780690724   -4.32689987441759    0.16166450680695
H         1.50354465225918   -2.21601384704047   -0.22827177259806
H         3.51106746679605   -3.66339981901010   -0.31637001156956
H         3.45368966883843   -5.91114618838635    0.70069095072590
H         1.39826609812808   -6.71045357757369    1.80541036048499
H        -0.59966063778563   -5.27148155210542    1.89215234196760
Cl       -0.35713872541304   -0.20452864320873   -0.79590542614590
