70
 energy: -109.970334749539 gnorm: 0.000997986781 xtb: 6.4.1 (afa7bdf)
Ir       -0.57708878926646   -0.85959487722567    1.24201401411480
C        -1.97520111682835    1.14058029130317    3.65021126581441
C        -0.78548511988242    0.45016726864116    3.07633042221001
C        -0.40540206432224   -0.88370609281791    3.46655599256159
C        -1.10822716738371   -1.70991988743663    4.48754255610228
C         0.90478919407276   -1.14965071925898    2.93571999369625
C         1.75955115131182   -2.30723221296695    3.31672861888501
C         1.28334326041926   -0.03791506633665    2.13269148799810
C         2.61335759778589    0.17513403133418    1.49461813735150
C         0.22807827210002    0.96729881266266    2.21401591652976
C         0.41142136394038    2.37104905332142    1.70433182036894
C        -0.74283258883035    2.91066778942735    0.85260219479642
C        -0.37858004991647    4.29234169943928    0.31504954419183
C        -0.08265784045738    5.25347161386022    1.46403388968541
C         1.04283090233272    4.71097550510500    2.34101041880911
C         0.69064078779916    3.32593912858877    2.87695689251774
H        -2.86245317994938    0.51421313693825    3.58436390742424
H        -2.16822141097052    2.09199262568504    3.16911076873585
H        -1.78382865670647    1.32513992802791    4.70793213303777
H        -0.88509992720290   -2.76509376648450    4.36070774144406
H        -0.76958263242590   -1.41201356993552    5.48031384505090
H        -2.18361951291661   -1.56699343746855    4.44138980312273
H         1.16772715830206   -3.20301710974257    3.48429936322333
H         2.51021851717428   -2.51859377031637    2.56091972873500
H         2.27396650540260   -2.06347961145377    4.24715176352119
H         3.19892176932023   -0.73894826566014    1.49615862428452
H         2.50046708461109    0.51555504815630    0.46722681777099
H         3.16187957284947    0.93767724128747    2.04742436277030
H         1.29662003156828    2.36845281709940    1.06189463371173
H        -1.65225903203633    3.00329343824376    1.44659359704497
H        -0.92597905788508    2.22419337582975    0.02427729855213
H        -1.19819999585000    4.68221982731111   -0.29171046712143
H         0.49955770689797    4.21430794949088   -0.32918622924060
H        -0.98202743422741    5.38861779774439    2.06937636573734
H         0.19715634697815    6.23059022138091    1.06589362268163
H         1.22446617049759    5.39058982315179    3.17580866370093
H         1.96224317170162    4.65393184932522    1.75386059827290
H        -0.18853024263683    3.39866933592792    3.51725580065156
H         1.51471496110458    2.94069876419815    3.47968964410604
C        -5.14520881818459    2.32840163392791    0.31237226955644
O        -5.45597886995847    1.06359464191998   -0.25690919500713
C        -4.59301652353996    0.06488663623354   -0.16961516932439
C        -3.36318773728765    0.10713067467402    0.49378696374555
N        -2.52728165367437   -0.92524839677517    0.53656673247880
C        -2.86223461458912   -2.08057807560928   -0.08638501284630
C        -1.85011321534909   -3.08586936961302   -0.04335926928261
N        -0.73121449498331   -2.76523335494457    0.52836400855929
C         0.31973933142494   -3.68565823329560    0.58943027905776
C         1.57609561543974   -3.32119689716669    0.09805007910184
C         2.62015469226011   -4.22024920482450    0.14831604731274
C         2.41486185508800   -5.47764298026756    0.71278371575070
N         3.50398467164818   -6.40966214943740    0.77571495244069
O         3.31120602556577   -7.47787943717969    1.32716676354188
O         4.56511764173945   -6.08357314341272    0.27503172625944
C         1.16919950717077   -5.84555909246822    1.21438333072332
C         0.12015900949359   -4.95239092833422    1.14517580226657
C        -4.08544374624423   -2.22250976523521   -0.75230067523059
C        -4.94931033106503   -1.15520099782464   -0.79269732786353
Br       -6.62697635199971   -1.26217346902107   -1.67846739545454
H        -5.06683501290638    2.25549704820627    1.39866395996069
H        -5.98165582056355    2.97255585184397    0.05027966799329
H        -4.22374795033301    2.73073421068924   -0.11249822988845
H        -3.03983376857486    1.00523639198341    0.99576357716382
H        -1.99418127726780   -4.04997710031013   -0.51683070037631
H         1.70389614250685   -2.34460003034724   -0.34352181925920
H         3.59549667602716   -3.96938811301843   -0.23950590393253
H         1.04182086241311   -6.82671760804632    1.64502458395885
H        -0.84949011951080   -5.22107798428090    1.53381726464217
H        -4.33293403487587   -3.15237586075822   -1.23804225347157
Cl       -0.03927639635225   -0.24779088367789   -1.00116832543245
