68
 energy: -118.725282556984 gnorm: 0.000558237451 xtb: 6.4.1 (afa7bdf)
Ir        1.13939082981956   -1.49754065085399    2.10074653066348
C        -1.42009537350514    0.10834580080704    3.60125362800911
C        -0.01557340750362   -0.38271189141725    3.65110009764746
C         0.42179791803169   -1.59776987881387    4.23445323647866
C        -0.41980674899870   -2.61555531387191    4.91971654411902
C         1.86374334707152   -1.63055621298772    4.16468530761095
C         2.73145511816721   -2.67218799551211    4.75781225696546
C         2.33009314412895   -0.38455649819100    3.59298295414930
C         3.74620184511462    0.06473344088095    3.55448416685974
C         1.16978785192493    0.37315791759435    3.24375969644520
C         1.17477329783719    1.73720825403352    2.70157552694486
C         0.47398018210547    2.74867585958771    3.35685300582999
C         0.52918313280330    4.03384274102220    2.85031910371871
F        -0.14397365747030    5.00736606814630    3.48937511557498
C         1.24359515343019    4.35779198558525    1.71047971664248
C         1.91940866905988    3.32894018182792    1.07688146406938
F         2.61634456325185    3.60520487180388   -0.03938239343998
C         1.90379082141744    2.02975034472527    1.54871228772461
H        -1.52266096046462    0.94715793311753    2.91903294713679
H        -1.71887983926083    0.43222586381089    4.59907931471824
H        -2.10319179262345   -0.68037882207316    3.29477380684529
H        -0.18810671941549   -3.61439640843688    4.55782134211878
H        -0.21060694687698   -2.58774017904285    5.98847607549878
H        -1.47565282741753   -2.41750462239692    4.76815280687970
H         2.97530466248406   -2.37810899180174    5.78061266312316
H         2.22187424909956   -3.63000260208479    4.79426119644599
H         3.66496144878058   -2.76559477766052    4.20914546594118
H         4.34320913989405   -0.57827053497801    2.91054784143972
H         3.81820950992116    1.08380807007251    3.18654447963510
H         4.16613064226210    0.01479134067035    4.55830857449900
H        -0.07621015001903    2.55608520106316    4.26268948700455
H         1.27827166045137    5.36639640710294    1.33459368686534
H         2.43317740307537    1.25605580914858    1.01363656395461
C        -1.91098940344433    5.90418594193298    0.62557611961542
O        -2.13108238942214    4.50535717750421    0.43348126683672
C        -3.35774250467674    4.10206752976315    0.11349006864016
O        -4.31060744633364    4.83336811711282   -0.02120686879887
C        -3.43303500979099    2.62092402967054   -0.07286269825220
C        -4.64675338115154    2.05791930167024   -0.45734360258851
C        -4.70886121124581    0.67836099830238   -0.63502141095732
N        -3.67410853474609   -0.11423025549479   -0.46728476977929
C        -2.50691360036761    0.41566969196596   -0.10327694565129
C        -1.38415931815452   -0.49731360598449    0.06004279257604
N        -1.41889956879328   -1.69488664593610   -0.32318374890358
C        -0.48062231113602   -2.64592151362697   -0.14162745328843
C         0.12342128250787   -3.25256126664387   -1.24467306310498
C         1.02237310499649   -4.28285833137722   -1.04369699833526
Cl        1.78543752122793   -5.00828459275374   -2.41042273867024
C         1.31504541825767   -4.78333138515478    0.22452481451667
C         0.69473236509178   -4.22937557097132    1.33258863356084
O         0.81393253043118   -4.68834582856581    2.58641732469785
C         1.62138843960032   -5.83396257702371    2.83714859914908
C        -0.16428667091997   -3.08563010462091    1.18856505278460
C        -2.33656576928295    1.78469123711993    0.11774096197926
H        -1.07855499409754    6.19613806793897   -0.01248744249569
H        -2.80717321083487    6.46467928005874    0.35754712893556
H        -1.66752547957982    6.07390994100852    1.67398896916933
H        -5.50605141036681    2.69157084396502   -0.60821802395617
H        -5.63015343855684    0.19371285893931   -0.92573397083966
H        -0.46589600668917   -0.07416095155765    0.51454250294292
H        -0.10655962247150   -2.90278614223995   -2.23703813143093
H         1.99664322840484   -5.61181930830096    0.30994352567623
H         1.51064602889037   -6.04108170253817    3.89906222878730
H         1.27074680086993   -6.69310049820726    2.26339392865112
H         2.66848447301294   -5.63262728066596    2.60428179621478
H        -0.95452250124093   -2.99342879274888    1.93313081910108
H        -1.38261045257479    2.19325302157670    0.41361588605493
Cl        2.45125087600405   -1.48295839498123    0.26874394904148
