59
 energy: -99.422547327395 gnorm: 0.000829442013 xtb: 6.4.1 (afa7bdf)
Ir       -0.52817630332825   -1.02603527920368    1.13159015195118
C        -1.63612942519616    1.31397907534516    3.53708395958355
C        -0.58199637630189    0.47465361807797    2.91234795877581
C        -0.26698111788333   -0.86549872266536    3.35439927371684
C        -0.95629270568151   -1.57270616035421    4.46905741449788
C         0.98915299867690   -1.24225679761964    2.77309001539880
C         1.82640090095590   -2.39287599449474    3.20522592849101
C         1.37429066216971   -0.20497297839163    1.85985511582820
C         2.67955280351073   -0.08250539866378    1.15775853191552
C         0.39536787664903    0.86726731733452    1.96056310856488
C         0.57493529242662    2.21055045690577    1.34372212413054
H        -1.35310854082961    1.49043416301731    4.57582272196624
H        -2.60161168808591    0.81363482709762    3.54295929880212
H        -1.73787760849563    2.27134862680896    3.03787546229332
H        -2.02017412047339   -1.35371394543950    4.47548275442172
H        -0.81365384823102   -2.64776484938183    4.40478982915505
H        -0.53707662228486   -1.23419481689935    5.41745071105923
H         1.21919224199508   -3.24595043954035    3.49478537890278
H         2.52089963559958   -2.69924361855180    2.42896973800898
H         2.40509452587019   -2.08052821816710    4.07562803420084
H         2.54735037005803    0.36189461617857    0.17453952136764
H         3.16508279721559   -1.04741782824275    1.05168921210318
H         3.33015945115735    0.57195829659474    1.73860576082138
H        -0.31856055297887    2.81785656590235    1.44308198495292
H         0.81375946069191    2.11650851258155    0.28725531979391
H         1.40462481373056    2.71972483139425    1.83324016836372
C         4.96718750831565   -6.24738278611365    0.02754162124503
C         3.69479751026451   -6.53684281717862    0.74627998204131
C         3.51895665279989   -7.67766577848857    1.45426675617466
C         2.29415377845130   -7.99398369044240    2.15683593501945
O         2.08816523473289   -9.00195536999278    2.79574089821925
O         1.28559261345208   -7.06905100352921    2.09047719390220
C         1.42095119602216   -5.92151542033143    1.39039578985706
C         0.32178748079670   -5.06575418457389    1.37636369496731
C         0.39977999099371   -3.86052907660998    0.69232990374229
N        -0.69029749370703   -2.98288542799041    0.64823219250906
C        -1.85792312898698   -3.43946810139491    0.31411187265877
C        -2.91108361413763   -2.48941009451885    0.16182559683098
N        -2.58362941522927   -1.20687714469548    0.46245077974245
C        -3.45796082017410   -0.25140919097554    0.15557705884424
Br       -2.93744036148626    1.52746320090865    0.41350342525401
C        -4.71979700635497   -0.50156239904428   -0.36679819248746
C        -5.09746310247742   -1.81166883989527   -0.62352149828803
C        -4.16931305706416   -2.80288482737386   -0.37044950211351
F        -4.44779552322325   -4.08011177986089   -0.64437283267577
C         1.57506893645745   -3.51056879985527    0.01448242835169
C         2.64631077647335   -4.37144040056674    0.00997660891066
C         2.60072489472100   -5.59149982738518    0.70021191248767
H         5.67039042804313   -7.06444789302251    0.15758769284146
H         4.77749653654791   -6.11544158603895   -1.03623723582923
H         5.41872029166014   -5.33289113678520    0.40785440012480
H         4.29308833780323   -8.42455821343912    1.52985847043025
H        -0.56371798056847   -5.35031605441800    1.92228135774988
H        -2.02099340295761   -4.48209655401865    0.06589976437238
H        -5.39000942349989    0.31836544037181   -0.56997431227471
H        -6.06727728221428   -2.05559697149766   -1.02707580881382
H         1.60549186859541   -2.57946077743513   -0.53005996905390
H         3.53759257560787   -4.10441478534760   -0.53370709872155
Cl       -0.16054892061464   -0.48050756805647   -1.15859136508520
