80
 energy: -124.621088231262 gnorm: 0.000932507438 xtb: 6.4.1 (afa7bdf)
Ir       -0.45606240956281   -0.81956923770272    1.52519092416934
C        -1.80489380205697    0.85385764109526    4.19512009533887
C        -0.61484357844945    0.23992397731031    3.54309645490587
C        -0.20463796443100   -1.12589398339941    3.71225182357192
C         1.09377813936086   -1.27724374287582    3.10325334053598
C         2.01218413270871   -2.43436318882106    3.28870596295431
C         1.43071291844270   -0.05103502908714    2.46870990136958
C         0.36259538138738    0.90047304460614    2.73617734269951
C         0.46403378726634    2.34972152599768    2.50418669270278
C         0.38040679905292    3.22350417976646    3.58756585321368
C         0.53643726728095    4.58248190534701    3.40321403269444
C         0.77909373966526    5.11113391143362    2.13613679625242
C         0.97006936895650    6.55709229606698    1.94893048834947
C         1.95446152450605    7.03298050355928    1.08461264976679
C         2.14895830745004    8.39185297742517    0.91925396247205
C         1.35890387389246    9.29810042786370    1.60795923821268
C         0.37343376667308    8.83626477147479    2.46515046869040
C         0.18236444131652    7.47750827267668    2.63753673309632
C         0.84883151641278    4.23406344872972    1.05453009289627
C         0.69524433194986    2.87385368105731    1.23314669194185
C         2.75556351819710    0.27690277662973    1.87393404477500
C        -0.86062445993875   -2.11050207157757    4.61917783433628
H        -1.61227127393651    0.94162054383808    5.26487762729050
H        -2.68872336585472    0.23220820891451    4.07118386559710
H        -2.00673876404178    1.84254155352579    3.79417536083824
H         2.58653007048415   -2.27423711413762    4.20192861760121
H         2.70886228065606   -2.51897833432139    2.45978086992474
H         1.46733676916993   -3.36865577720728    3.39115408487647
H         0.22715440451032    2.83333221969063    4.58155024049128
H         0.49724798140056    5.24223454169253    4.25676411577562
H         2.58638104314831    6.33407983618140    0.55627006624579
H         2.92154218892663    8.74716258613333    0.25269340618232
H         1.51131453500516   10.35936395555799    1.47666329239396
H        -0.24810006946975    9.53913796157085    3.00096432455071
H        -0.59731258960592    7.12752597500606    3.29812810302046
H         1.01093644671100    4.62397555260781    0.06093650521616
H         0.72969474424652    2.21244781194448    0.38021570003095
H         3.07319447272291   -0.48895524360754    1.17069130856857
H         2.72250510455270    1.23258225041601    1.36006211529388
H         3.49730187056233    0.33459521430885    2.67089905549573
H        -1.94073904383508   -1.99179958604198    4.61107129204952
H        -0.61131835209898   -3.13029972832432    4.33961288818471
H        -0.51102529112141   -1.94410613370619    5.63875768406707
C         4.87722498097876   -6.17015340433067    1.70943147726142
S         3.72072240113352   -6.65506211205363    0.40242931244598
O         4.36473226720335   -6.47972812119306   -0.87793978086550
O         3.19178843452291   -7.96380851529149    0.70574633172349
C         2.37968917568321   -5.45877078235234    0.53187615065808
C         1.20907739524182   -5.82048521477569    1.17219897353159
C         0.17078359940136   -4.91063476209774    1.26247553698434
C         0.32536831455787   -3.63334578232266    0.71983777181350
N        -0.71285644783930   -2.69550671368894    0.79833736884734
C        -1.91098458197611   -3.02095134301327    0.43285974407005
C        -2.90765249258831   -1.99600236992965    0.48762192350757
C        -4.24720617672939   -2.21299032745467    0.11027808342315
C        -5.12667978035428   -1.16843169735186    0.15188289277419
C        -4.65776764274654    0.11700719077112    0.49742632796578
C        -5.49645285596893    1.24897125349704    0.49463807365709
C        -4.99495888341819    2.49150977498213    0.77497366483468
C        -3.62803367093446    2.65093749587050    1.05437189314816
C        -2.79064093669575    1.56893704584716    1.09336279255091
C        -3.28013006413027    0.27373245540609    0.83915791443539
N        -2.45327122809969   -0.79970065524195    0.89398344452084
C         1.51835167278466   -3.27346525003116    0.09043661657730
C         2.54197233203149   -4.19720000391659   -0.01325258878792
H         5.69294883760865   -6.88288441949637    1.70064950414386
H         4.35103793064323   -6.20712752906177    2.65345678770711
H         5.23999662285058   -5.17609234562945    1.48615648942876
H         1.12450029725660   -6.81747986759360    1.57416948546810
H        -0.74673623939616   -5.17605228686026    1.76484121885856
H        -2.14102160103738   -4.00329107270476    0.03635007705867
H        -4.55199217797222   -3.20043640271198   -0.19474966961749
H        -6.16772441183920   -1.30342888116063   -0.09803415544046
H        -6.53912379218980    1.11542964489044    0.25077840248166
H        -5.64080038370234    3.35538695380560    0.76490679899743
H        -3.23399888198279    3.63848058838972    1.23593000613582
H        -1.73557787867854    1.69935654748558    1.27118683070060
H         1.60765026526461   -2.28675652539585   -0.33845500438952
H         3.45855273695818   -3.96072136894752   -0.52928779215197
Cl        0.05767510194739   -0.12720157795784   -0.70007685311488
