66
 energy: -120.823096646221 gnorm: 0.000663054073 xtb: 6.4.1 (afa7bdf)
Ir       -0.51495259028615   -0.85137118772853    1.53335771847476
C        -1.86662609239746    0.82816964008736    4.22127628234446
C        -0.68288730872987    0.22237826824879    3.55908506342140
C        -0.25677997640366   -1.13275143299159    3.74746844481072
C        -0.89316246874749   -2.10975137111011    4.67387178627266
C         1.02292895883509   -1.28922336991362    3.10829104975131
C         1.97058473178154   -2.41744845934598    3.31641528399285
C         1.35054016461070   -0.05510603608001    2.46249316591256
C         2.66939800498344    0.26539269508673    1.85758773768996
C         0.28226906126977    0.88397617734596    2.73203736853100
C         0.38377774997020    2.33200044974147    2.49277570580932
C         0.30582954849820    3.20803993192296    3.57281006044518
C         0.45279577684852    4.56435384774946    3.34931211422210
F         0.38345462814123    5.40403374985935    4.40158930038861
C         0.66623182683360    5.09382316941199    2.08932009821220
C         0.73656585037709    4.19638968151581    1.03793644232022
F         0.92736738800669    4.67747142026496   -0.20842491399542
C         0.60640822328593    2.83212503507111    1.21129946365043
H        -2.05420033742399    1.83160525471770    3.85382276088197
H        -1.68137222212772    0.87043835557034    5.29536926112447
H        -2.75653465645651    0.22093264644620    4.07137233911377
H        -0.62282139296445   -3.12973937348233    4.41622537346419
H        -0.54313257573158   -1.91365944854429    5.68810468531789
H        -1.97487735993914   -2.01076712232883    4.66860532624691
H         2.55105847827883   -2.20976526637871    4.21639693238534
H         1.45414633544023   -3.36161305285264    3.46084295834950
H         2.66323540731542   -2.51181180314118    2.48561007547721
H         2.96703841931813   -0.49155195210984    1.13629108374584
H         2.64970839716733    1.23103853858173    1.36301048655066
H         3.42069749205748    0.29045437071916    2.64742883717500
H         0.16024674531701    2.84992882143673    4.57833694294531
H         0.77434383827262    6.15426515272015    1.93386624261879
H         0.64946684897112    2.17337634953657    0.35775106789549
C        -3.06134560665536    3.17004288668639   -0.03900882842045
S        -2.44012684103777    1.86389085847673    1.05610154728718
C        -3.22142843889196    0.40355166915825    0.53212348472785
N        -2.50587538018783   -0.71477522398249    0.72401988752119
C        -2.96404664716594   -1.89551149021847    0.24216961112736
C        -2.04479339715954   -2.98141200779315    0.37853823071155
N        -0.87615975006120   -2.71756492548240    0.87236919809580
C         0.07768261889633   -3.74900503592766    0.94444193028731
C        -0.22133626154543   -4.94665108641124    1.59389805273553
C         0.72060239412187   -5.95692262567728    1.63811841830110
C         1.95215296361822   -5.77802545324771    1.01590167824905
C         2.95715277314857   -6.89518268245729    1.08086852827657
F         4.00195998838303   -6.72036188908481    0.26036213946043
F         3.47036370578807   -7.03777228731495    2.32122598564449
F         2.41695900552682   -8.08715166253330    0.76694648812548
C         2.25343395339726   -4.58740900354969    0.36475791974030
C         1.31944239446929   -3.56850809485041    0.33817101543830
C        -4.19229262329447   -2.01095643778776   -0.40873660321918
C        -4.98339427584303   -0.88719279828822   -0.52638408680010
C        -4.50884642776685    0.33598316354598   -0.04468327962096
C        -5.39551374520036    1.43528628495710   -0.08061856192763
N        -6.18219348573087    2.26978488769705   -0.09214493018384
H        -2.26329299778187    3.90670803249021   -0.07212038185366
H        -3.22594082175764    2.76803815231631   -1.03246441448963
H        -3.96366208212927    3.61959726451176    0.36018752711825
H        -2.29715020016557   -3.96985846922555    0.01259577555871
H        -1.17838461258534   -5.07633302635434    2.07443227521347
H         0.50206022611156   -6.88544325878093    2.14230618575650
H         3.20887708640456   -4.46199124049902   -0.11996185083302
H         1.52544911141445   -2.64239133250954   -0.17621354909282
H        -4.50962875482348   -2.96239461924727   -0.80134948250596
H        -5.96244063280790   -0.93441467959483   -0.97813522179157
Cl        0.12051786697858   -0.26226354903500   -0.66793723422791
