76
 energy: -110.375427215824 gnorm: 0.000163803190 xtb: 6.4.1 (afa7bdf)
Ir       -0.49036827432666   -0.77616800427895    2.23938016943710
C        -1.64829153386904    1.74634017130316    4.09347806942121
C        -0.51471306652169    0.80181476138467    3.80881721431838
C        -0.44298939749888   -0.48176072742690    4.37586737646847
C        -1.50208412125945   -1.18209040118448    5.17972482575009
C         1.02560955953012   -0.82917219428108    4.57995000907683
C         1.44070712712172   -1.37604017752121    5.92407823476561
C         1.75883704284452    0.40337298190367    4.09864303695821
C         3.24530247485075    0.44610357960691    4.15280558884762
C         0.88067927458859    1.30322776902319    3.61519828183845
C         1.24199151463028    2.59503213752194    2.94275087029486
C         0.57181932046882    2.72770142082996    1.57008208834599
C         1.07364910125490    3.98330361956581    0.86193979496393
C         0.80312324058252    5.22309530170083    1.71105538487744
C         1.45791515975048    5.08623724973668    3.08347894019935
C         0.94579539878493    3.83607713519853    3.79450377409872
H        -2.55221103893578    1.20134362705971    4.34559191569413
H        -1.85051239486277    2.42717838709789    3.27384166188289
H        -1.37051930687002    2.33561389855083    4.96753251811540
H        -1.32863712478053   -2.25549843768924    5.19066894417930
H        -1.48324117562427   -0.82262272433419    6.20880117196787
H        -2.49215385762575   -1.00103576278118    4.77156069484035
H         0.87907710585351   -2.27138184161519    6.17462959622393
H         2.50074634582876   -1.61612608872946    5.92702048305924
H         1.25296719767538   -0.61849671870188    6.68194698683515
H         3.66064819552947   -0.53131755474405    3.91192879125586
H         3.64891084644780    1.17538743672996    3.45655104402558
H         3.57900381990747    0.71685078077421    5.15492135449048
H         2.32384454439598    2.58096207429108    2.77382685173306
H        -0.51007821427056    2.79034771287794    1.67990392413697
H         0.79883655130310    1.84519171417812    0.96795044700913
H         0.58158344347021    4.08343814749054   -0.10772213850887
H         2.14801998917750    3.89854140484475    0.68127562832203
H        -0.27469512414860    5.35127860278004    1.83614290933171
H         1.18582951590400    6.11147437437412    1.20407554752676
H         1.24059571289777    5.96921115281601    3.68854833323697
H         2.54255207994657    5.02613724403680    2.96451224071547
H        -0.12569782643770    3.94158873772122    3.95323672112300
H         1.42853869254836    3.73593576123609    4.76857062796876
C        -5.12131227836949    3.07018999272609   -1.47616269066877
O        -3.96349521280028    2.31028501499597   -1.78400376374138
C        -3.36815220217643    1.60597410253648   -0.81708631267388
C        -3.78389565813408    1.53291889099228    0.52083219657001
C        -3.03754991694184    0.80525378030385    1.42260794538491
N        -1.92006125394965    0.14777556599084    1.11079515723495
C        -1.57160692263180    0.11585762713414   -0.21379301102694
C        -0.55744580072329   -0.83998475796770   -0.52169826397708
N        -0.12974487916197   -1.56859638730631    0.47592443903993
C         0.71977100552475   -2.65238162780894    0.22104799988253
C         1.78207222327277   -2.57297785117919   -0.66741588849502
C         2.58903360423375   -3.67969027338739   -0.88226632808314
C         2.34187229510757   -4.88067913806529   -0.23535431714667
O         3.06285182329973   -6.01689222188226   -0.38515747687819
C         4.14101592021364   -6.02475762930880   -1.29762855316240
C         1.25282917636728   -4.96695152079708    0.67225902671940
O         1.07483045727426   -6.17514973671327    1.25934594707709
C         0.01531488385468   -6.32456706577602    2.18308803559183
C         0.46761995758034   -3.85414676625427    0.89471986104468
C        -2.25126415192467    0.84977160728855   -1.17622780718727
H        -4.90380834292070    3.83230169237573   -0.72443016495975
H        -5.40852607190626    3.55129395692804   -2.40862113920056
H        -5.93428850310708    2.42633399575573   -1.13270750593985
H        -4.67255367152757    2.03447616898260    0.86342319122463
H        -3.36245090008572    0.74279911932440    2.44778628795165
H        -0.26930405563575   -1.03934228562823   -1.54613235377790
H         2.00870158066868   -1.64399711334548   -1.16620328383819
H         3.41738524232837   -3.59202880401749   -1.56575531381860
H         4.54510859629060   -7.03445310188046   -1.25888542117386
H         3.80327741995391   -5.80693553277160   -2.31490923477878
H         4.91693888530968   -5.31135290329757   -1.00492954663241
H        -0.95474965329545   -6.15588694234158    1.70710606886159
H         0.13514866992861   -5.64808493672548    3.03372816817074
H         0.07539669494599   -7.35484587975734    2.52771746795906
H        -0.37906032495122   -3.89479350081620    1.56104249475443
H        -1.93186869705567    0.82996857755129   -2.20447154451549
Cl        1.29483626934593   -2.07781868552480    3.26709877666497
