77
 energy: -117.140063704244 gnorm: 0.000406541713 xtb: 6.4.1 (afa7bdf)
Ir       -0.50691081942733   -0.83317484333263    1.57331522318149
C        -2.28391959684267    1.17426578040562    3.73753780644217
C        -1.01922065550429    0.46799297760765    3.39187774435642
C        -0.69714030797573   -0.87152179156505    3.79862807274280
C        -1.55124003530377   -1.73687418426034    4.66277619422957
C         0.69830229069489   -1.09316382922910    3.53133194707851
C         1.49086326135895   -2.20466075717921    4.13075160144426
C         1.19122719659959    0.02254956601193    2.80129835279455
C         2.62314259345262    0.30493712307577    2.49002766374601
C         0.11525745497950    1.00577412686937    2.72417096217095
C         0.30367907906857    2.40932699826848    2.32436910621489
C         0.04269458846199    3.41670472865628    3.25201819479748
C         0.26885125907319    4.73255399626605    2.89692714752846
F         0.01730017043829    5.69985923952100    3.80452424218968
C         0.74211940977605    5.09898765821782    1.64988476350316
C         0.98491195735380    4.07640622813596    0.74922008111622
F         1.43994883911801    4.39635838602277   -0.47956702079448
C         0.77850593930008    2.74569068624023    1.05827581880947
H        -2.38827131564188    2.09854297236857    3.17731045905592
H        -2.27022666200042    1.40876342716130    4.80293314238587
H        -3.15399560253387    0.54790624063443    3.55364699230910
H        -1.30170242010154   -2.78603469386444    4.53260460115066
H        -1.38426327245632   -1.47717422004849    5.70887049625799
H        -2.60566350896610   -1.59206107619575    4.44384014311321
H         1.48705522967000   -2.07537475291849    5.21390103584792
H         1.05323501309927   -3.17675231078762    3.91596914346078
H         2.52250684812587   -2.18945728985485    3.79308453919903
H         3.13666216447144   -0.58205556641788    2.12891648040056
H         2.71186125765081    1.08492091879957    1.74011030643853
H         3.12374897418303    0.64516243131198    3.39753681442118
H        -0.30476706055318    3.18764726340577    4.24564545703091
H         0.91551538932953    6.13040781219072    1.39236421538426
H         0.95674752483570    1.98794064313979    0.31017606423661
C        -6.99091570733413    5.27247128249507   -0.09874144034701
C        -5.71247220240503    4.46517216188393    0.06161724929150
O        -6.08044246976193    3.09195872092690    0.14651630651455
C        -5.15027438046974    2.14571714471978    0.31256010727473
C        -3.75977362454067    2.39165613451577    0.41181627046426
C        -2.88012197977748    1.36535011572829    0.61256535911804
C        -3.32486562570958    0.03231624960452    0.70392030075207
N        -2.44985870142076   -0.97732718291124    0.89827973348855
C        -2.86659321839546   -2.24775922945765    0.79030490256235
C        -1.79584105268146   -3.19589538763256    0.73358600095544
N        -0.58946598884534   -2.76020598768629    0.88577239516961
C         0.50331884443768   -3.64042487995769    0.49897323369630
C         1.87200354783091   -2.99515931333127    0.67507503756984
C         2.97586729073667   -4.04130951626396    0.47087227711757
C         2.60720310899173   -5.04173612776360   -0.63248103091288
C         1.67243135175490   -4.38284041992422   -1.63996345425687
C         0.32864578594487   -4.04728101990999   -0.98473112248441
C        -4.22614754614927   -2.58144255871964    0.62578160582285
C        -5.15082364293291   -1.58115227522584    0.54449102733928
C        -4.72173403547823   -0.23182486987039    0.54380157610653
C        -5.60424326564614    0.83628697368457    0.37397626308875
H        -6.74900015326808    6.32887724141416   -0.16640072190735
H        -7.51453282813289    4.96936642930289   -1.00108737257294
H        -7.64474658394986    5.11085166378747    0.75374797504249
H        -5.05404944028134    4.62023638045404   -0.80210885392619
H        -5.18647889945696    4.76611382944208    0.97600759464317
H        -3.38154576000645    3.39671156228941    0.32019642529261
H        -1.82007336786063    1.56145961573041    0.65728434333504
H        -2.00154132585830   -4.22347727490507    0.45663802447012
H         0.45263297891239   -4.53410641423912    1.13319414104210
H         1.97081491488576   -2.18814845651568   -0.04973664887930
H         1.96054861743636   -2.56957456692187    1.66920433457237
H         3.15646609319342   -4.58104689855178    1.40196879957090
H         3.89951943061460   -3.52471789548326    0.20844809058093
H         2.11075384970865   -5.91520136216230   -0.20524439901808
H         3.50990284100617   -5.39444787746911   -1.13214241781017
H         2.14217707371022   -3.47774247607314   -2.02571029213687
H         1.49915294544962   -5.04723724656543   -2.48756840503104
H        -0.33354138752541   -4.91085824382331   -1.05246387272116
H        -0.13535790780937   -3.21774734217958   -1.52069735466760
H        -4.50740578143310   -3.62025454582212    0.57440838858417
H        -6.20321760501244   -1.79731091602472    0.44889408694294
H        -6.66039292626365    0.64905113662546    0.26646796024901
Cl        0.16017755007739   -0.22268424588594   -0.62680121622459
