66
 energy: -115.244880493208 gnorm: 0.000622319582 xtb: 6.4.1 (afa7bdf)
Ir        0.93094294358163   -0.45672652473507    1.91153296742973
C        -1.71411642538054    0.99896426104306    3.43499886554506
C        -0.31514488889561    0.50468987184289    3.49063858195018
C         0.09082454376241   -0.76713923105272    3.97849775985352
C        -0.82061208087254   -1.81595770335946    4.51630955113925
C         1.53151722256030   -0.78606971451682    4.01037515379514
C         2.39925336099686   -1.82498030875796    4.61120375915723
C         2.01912209392659    0.51417770390172    3.57191885568175
C         3.43777161313123    0.95036531751658    3.65366963118322
C         0.88818440105884    1.30261945956265    3.24253432566914
C         0.91030587026813    2.71863145976638    2.85369136931124
C         0.18323064987513    3.65016023479733    3.59308493097482
C         0.24908283399768    4.98482198095270    3.23657822687360
F        -0.44943104291094    5.87866915149285    3.95892149127692
C         1.00065521509624    5.43525155490942    2.16501252038546
C         1.70811076532074    4.48426034248533    1.44953650527064
F         2.44898323497505    4.88317653796427    0.39940718474059
C         1.68248168286906    3.14036878087990    1.77217315674562
H        -1.79450707289135    1.89466936361752    2.82656564681944
H        -2.04373780123721    1.23553374020282    4.44785398379203
H        -2.38449505641084    0.23593051003875    3.04674829571079
H        -0.38335484435124   -2.80680226273058    4.44318564448291
H        -1.01406095307090   -1.60743250160703    5.56874846166514
H        -1.77120281831874   -1.81089343012044    3.99195222093662
H         2.77505112155698   -1.44317278073543    5.56264657086922
H         1.86029645691709   -2.74667298965665    4.80530047314631
H         3.26599064240995   -2.02587033736696    3.98456872741464
H         4.07705908890321    0.31318473841434    3.04593532794347
H         3.54738002192668    1.97678122560303    3.31727431589887
H         3.77798416278528    0.87564744285371    4.68586104288597
H        -0.39938045392947    3.35858003203687    4.45102957206997
H         1.03499551762535    6.47903700411979    1.90034258775701
H         2.23684410512093    2.43401744283144    1.17356933086657
C        -5.70463248913962   -2.21557643299379   -0.40004995571324
S        -5.82105983774590   -0.40323796524903   -0.37765053705093
C        -4.14709514465259    0.01323826824442   -0.18408186846933
N        -3.26714420106791   -0.96261620197846   -0.07695723802119
C        -1.97350025976037   -0.68166753449168    0.08983908659475
C        -1.11016967195723   -1.84601118837882    0.14269131732037
N         0.02956105672828   -1.91270731955587    0.73506506321451
C         0.81277246287685   -3.06940067959962    0.50922804714459
C         1.43748560772816   -3.72039883394270    1.57212411583682
C         2.21841197952279   -4.83796123969979    1.33943276340174
C         2.40146182287042   -5.31164946752678    0.05024050500345
C         1.78435480114878   -4.66071982749398   -1.01463734340113
C         1.95594992779680   -5.11943107418616   -2.42061260135169
O         1.45763188549183   -4.56046855868532   -3.37196638448172
O         2.70728920434830   -6.20729376320119   -2.52918029467693
C         0.98333006241084   -3.54751945378213   -0.78515280008870
C        -1.49218237184169    0.62899722661537    0.12147773322367
C        -2.40221259696293    1.66878044789898   -0.00561016246166
C        -3.75440571019089    1.37951271747381   -0.14869145441782
C        -4.70534593725790    2.41314921941344   -0.27708102699422
N        -5.46524974242357    3.26689960761970   -0.37668526413064
H        -6.72361315020314   -2.57829610264307   -0.48706330256388
H        -5.25072856359827   -2.55363947385493    0.52469646472737
H        -5.11466179651063   -2.52055175786055   -1.25694711847632
H        -1.50364465677803   -2.72151384482638   -0.37007309573906
H         1.28285698432384   -3.36211961881015    2.57743940987833
H         2.68936021277592   -5.34452270711415    2.16673835681148
H         3.01881716460044   -6.17438959492377   -0.13978958313478
H         2.80576800919085   -6.49510668873291   -3.45453581694983
H         0.53976279475864   -3.04388229894835   -1.63094522675707
H        -0.42993260137806    0.83163457485401    0.17582933084538
H        -2.07259774330135    2.69689718272711   -0.00379304046038
Cl        2.28519638771393   -0.12483698862041    0.10911988212344
