77
 energy: -120.392195584844 gnorm: 0.000699195767 xtb: 6.4.1 (afa7bdf)
Ir       -0.59981004690700   -0.84008243270970    1.37927903764482
C        -1.72774781905862    0.94759248318904    4.05847905995829
C        -0.59401223901294    0.28045047734200    3.35805122838588
C        -0.20557636844031   -1.08804093865905    3.55525734479812
C         1.05163895468239   -1.29256772472816    2.87996750897006
C         1.95533574609001   -2.45924904992088    3.07860659766399
C         1.38048879141487   -0.09978539906624    2.18346652590849
C         0.35238543352499    0.88657050788997    2.47378974892052
C         0.47484592778744    2.32718367025923    2.19970455753165
C         0.47591143031197    3.22414708207984    3.26750275693004
C         0.62258598041362    4.57822457784961    3.04498433004517
C         0.76969327329497    5.07976264422685    1.75242729376805
C         0.91906596563545    6.52383762751637    1.51902071173384
C         1.81857697351337    7.00071240130393    0.56741285868324
C         1.96110649981522    8.35912065890840    0.35187872993634
C         1.20336754189565    9.26376708542379    1.07787386438857
C         0.30387450914958    8.80099779533644    2.02451680414729
C         0.16498027121056    7.44324148781992    2.24620250093819
C         0.77058173949197    4.17873947931556    0.68844970610592
C         0.62694340292003    2.82290813635737    0.90589744228456
C         2.67123009811254    0.17303848126231    1.49512590484271
C        -0.81663841115495   -2.02168547615028    4.54454244422884
H        -1.46325663453563    1.08133401421683    5.10802502676298
H        -2.62730044192156    0.33726879475483    4.02247863209890
H        -1.94138427403582    1.92045313616898    3.62589747591706
H         2.49522150571014   -2.31888079769933    4.01625425394469
H         2.68444429397962   -2.53122647237431    2.27692702613740
H         1.40349136442465   -3.39314604105151    3.14502687935915
H         0.38944802154974    2.85419904164641    4.27722632999830
H         0.64584652882188    5.25585697066284    3.88508951914510
H         2.42521842138721    6.30363681425081    0.00786020589588
H         2.66697199845318    8.71476618117508   -0.38491058628099
H         1.31392934598756   10.32441068272889    0.90631787981078
H        -0.29171059921936    9.50219306162416    2.59115902616453
H        -0.54899672382533    7.09130148272415    2.97641844367068
H         0.86465738119603    4.54654279822732   -0.32220835459305
H         0.60161205016928    2.14393798006865    0.06626122131180
H         2.99435088548550   -0.67434881209264    0.89327007415389
H         2.59450909128538    1.04778736503672    0.85622415673383
H         3.43910220818764    0.36249002947529    2.24677695734298
H        -1.89134075008603   -1.87660102199592    4.61068230893856
H        -0.60987676595696   -3.05669334990817    4.28706436759188
H        -0.38841044672935   -1.82698023531331    5.52864141765117
O         3.92456861634010   -2.83186346063837   -0.43285769372688
C         3.54262033035460   -3.98072000923879   -0.42300464538608
O         4.28845740128264   -5.00093395632087   -0.82232964204427
C         2.19628287858652   -4.38541409500630    0.06393869320806
C         1.92238710294537   -5.69330582208382    0.45749647823766
C         0.67026697728108   -6.00696588177891    0.96038076644550
C        -0.31143954865781   -5.03727468131601    1.06127396590907
C        -0.04263689797957   -3.72797249660891    0.65434895541628
N        -1.01259247973284   -2.72191761746674    0.73720483373991
C        -2.23891191000195   -2.96959325369626    0.40290114144981
C        -3.16158690978458   -1.87819867036828    0.45129966791537
C        -4.51808568442492   -2.01588486873677    0.09459253082766
C        -5.32332004131896   -0.91322858947471    0.10543856885282
C        -4.76290172197076    0.34770319349146    0.40132430326625
C        -5.52066405626781    1.53410147375347    0.35279357149463
C        -4.93359519750443    2.74950621796431    0.58084059868746
C        -3.55934836922102    2.82300257214847    0.85711366885284
C        -2.80076555088385    1.68682202348517    0.94243980830222
C        -3.37621797321155    0.41952033084095    0.73517857500703
N        -2.62189081799851   -0.70529790748335    0.81968458037013
C         1.21814621467815   -3.40474586563917    0.16489226454105
H         5.16778476871770   -4.71487775719269   -1.12907287857595
H         2.69065572626466   -6.44539358708256    0.38090814936788
H         0.45893273932524   -7.01467978450688    1.28162536063327
H        -1.27467728501061   -5.28266907144391    1.48158057571790
H        -2.54719669123957   -3.93899525286351    0.02845649890319
H        -4.89311457722598   -2.98997113024662   -0.17372567362100
H        -6.37296990675939   -0.98261390941997   -0.13440675560954
H        -6.57065610105785    1.46391994846888    0.11381334335097
H        -5.51712936990825    3.65530280343464    0.53200908956833
H        -3.09479225494830    3.78643549664526    0.99723576065312
H        -1.74009439080847    1.75113233680484    1.11720400626771
H         1.42915538593632   -2.39969628304216   -0.16824762373007
Cl       -0.15995752088446   -0.26612764253538   -0.89721906393025
