84
 energy: -130.799610524609 gnorm: 0.000709297585 xtb: 6.4.1 (afa7bdf)
Ir       -0.45050243034163   -0.31307765081877    1.47202660124142
C        -1.57932174616245    1.45524451113391    4.17082369513804
C        -0.44477137283212    0.80360231001202    3.45693101226417
C        -0.03763162747537   -0.56065677025089    3.64326056760486
C         1.21642009229203   -0.74551967431087    2.95584202541844
C         2.13718806565029   -1.90144206927851    3.14090063438092
C         1.52151445460481    0.45350137348505    2.25990635178608
C         0.48309020982027    1.42490428886238    2.56508654410003
C         0.58999007773932    2.86850963475524    2.29755989902509
C         0.62727578961111    3.75718860688079    3.37145701554203
C         0.77850025300090    5.11206004907835    3.15524868870497
C         0.89256945343695    5.62306818322365    1.86307696075968
C         1.06271850747091    7.06606492659376    1.63560693894014
C         1.93295215706164    7.52974548151866    0.65051886708253
C         2.09856248159291    8.88598643955894    0.43818370286307
C         1.39324506432535    9.80261106886050    1.20098431114535
C         0.52475234033488    9.35352690247882    2.18244893582477
C         0.36336095425416    7.99766300801311    2.40090246904295
C         0.84673161860546    4.73067573645545    0.79255989611235
C         0.70085363335680    3.37390351646218    1.00356346155127
C         2.79992012227213    0.74896525871060    1.55713047048833
C        -0.62715750687172   -1.50681225939901    4.63407801555918
H        -1.31658794755482    1.56600249027346    5.22342647029966
H        -2.47938753753775    0.84686330817599    4.11934254019479
H        -1.79116060385350    2.43704448834362    3.75817707648589
H         2.68497144987192   -1.75793588225849    4.07329553934832
H         2.85814257594092   -1.96135415413910    2.33097098947276
H         1.59789782246225   -2.84263838748949    3.20894628073476
H         0.56774078078621    3.37967066238677    4.38050418364887
H         0.83491465800429    5.78155892269309    4.00027798466626
H         2.50003514693135    6.82328542312329    0.06211824703927
H         2.78194234153566    9.23060450148477   -0.32450733894692
H         1.52198088379268   10.86168386551753    1.03243947081043
H        -0.02845760789631   10.06425705640874    2.77924263157168
H        -0.32392018287515    7.65822691557471    3.16177943050180
H         0.91004151453684    5.10545859262431   -0.21799072526505
H         0.64753539683420    2.70100076291742    0.16025370915697
H         3.13298268743378   -0.09503744289584    0.95567495534114
H         2.69795566161556    1.61853603705775    0.91426855881327
H         3.57237691254778    0.95754087056857    2.29893836995201
H        -1.70224931875251   -1.37208492468497    4.71488373943995
H        -0.41485648457540   -2.53803584122996    4.36580926828951
H        -0.18729064003661   -1.31631758819848    5.61387225342307
C        -6.39751943790915    6.51573546683129    0.65414053562279
C        -5.22024676528110    5.56895947613579    0.82683055407689
O        -5.70248834079947    4.24315843714973    0.62958233026003
C        -4.87147717002072    3.19869080820985    0.71149774741506
C        -3.48631930319719    3.28824986479678    0.98661429393174
C        -2.71504746873278    2.16350104841827    1.06895591284593
C        -3.25776925571378    0.88069908711879    0.86530032258192
N        -2.47986303399002   -0.22280173660111    0.93998897552415
C        -2.99843055408746   -1.40974864861767    0.58272049268877
C        -2.05459815497435   -2.47784467332005    0.51706112372671
N        -0.82628694181869   -2.20529369948353    0.82740265314995
C         0.16315581705477   -3.18961736581541    0.72339340768778
C        -0.07048535602238   -4.50570734919214    1.13027101555631
C         0.92941144225979   -5.45426712145974    1.00833579100261
C         2.16575537133075   -5.11254413470161    0.48526122719943
C         2.40533838895498   -3.79782210970902    0.09225929791798
C         3.73355003547875   -3.36423244859432   -0.41712565147437
O         4.09554602305681   -2.20842477730995   -0.42699044233826
O         4.48969859444274   -4.36777026939273   -0.84084955131361
C         1.40828163317026   -2.83850425137362    0.21329910053068
C        -4.35930745555601   -1.57434293855997    0.24395614088501
C        -5.18546094112416   -0.49092582450075    0.25351997489641
C        -4.64859646316431    0.78725738200473    0.53919192729732
C        -5.42493497453782    1.94604433506584    0.49103220984332
H        -6.81058863865606    6.42065962679765   -0.34610621459929
H        -6.06725846819992    7.53891414509421    0.80597148247139
H        -7.17541173251485    6.28130159359020    1.37533171220370
H        -4.80223135862842    5.66318925117798    1.83617521593037
H        -4.44021179373803    5.79495535269351    0.08959263470574
H        -3.02021210780759    4.25031615860254    1.12389621848268
H        -1.65546424177891    2.25517560648787    1.24007504010901
H        -2.34837384656439   -3.45334172769274    0.14698113201342
H        -1.02155430243665   -4.77345474421341    1.56458540846949
H         0.74391916116491   -6.46788329865840    1.32769845127102
H         2.94770534548578   -5.84844672339683    0.39252755552994
H         5.35796291484225   -4.06434363012665   -1.16192540203664
H         1.59249335542462   -1.82765382602921   -0.11828379367759
H        -4.71685314474840   -2.55811739625854   -0.01232269299667
H        -6.23450288722830   -0.58173052621284    0.02004571098395
H        -6.47526559393978    1.87745498488845    0.25748942452225
Cl       -0.05754045049684    0.28206904801072   -0.80788397242862
