81
 energy: -126.660794240669 gnorm: 0.000186597534 xtb: 6.4.1 (afa7bdf)
Ir       -0.36265429059192   -0.75440717172747    1.78761246460811
C        -2.03463263999652    1.06295756970466    4.17819596707609
C        -0.76151613653410    0.51963391735709    3.62634199262641
C        -0.22695543030318   -0.75899436908688    4.03286977927582
C        -0.85493160109022   -1.64782288251336    5.05071233923596
C         1.11734136462771   -0.85937239110517    3.53350230259662
C         2.15236924876466   -1.84534095554068    3.95091948722402
C         1.36451688351707    0.28874638855951    2.72681376292839
C         2.68040489002437    0.64892313452039    2.12990152511255
C         0.19488468424949    1.15725986275907    2.78530191536318
C         0.21853690176588    2.57486403451724    2.28122873994853
C        -0.95406735814690    2.96894322818755    1.37654274349683
C        -0.74099853408256    4.38608015571189    0.85058739336317
C        -0.62352623472165    5.37347139706832    2.00922363104785
C         0.51988074497604    4.97483246799128    2.93893638843385
C         0.32089772880086    3.55476498704724    3.46169236004558
H        -2.82598973245788    0.31632362371523    4.15710064505401
H        -2.36699064129683    1.95187880642431    3.65353540055808
H        -1.86676675905147    1.32916237687727    5.22289630218734
H        -0.44196131004675   -2.65101672278462    5.00911320446884
H        -0.66135225324138   -1.24137959538040    6.04422875667584
H        -1.93164433003365   -1.70426452554741    4.91634754860011
H         1.72245173206737   -2.66627761246318    4.51443759549904
H         2.68851465818172   -2.25128843728993    3.09640726855130
H         2.87630700028804   -1.33646904407486    4.58773697334797
H         3.33977230984465   -0.21312982720900    2.10039624253439
H         2.56174891310063    1.02904596818154    1.11739207491818
H         3.14810842570240    1.42756962765662    2.73330164446464
H         1.12544407704017    2.68696256642627    1.67942776640172
H        -1.89718948136154    2.94717406943801    1.92337412743123
H        -1.01781791942966    2.26917073726378    0.54151159761280
H        -1.57594408737234    4.66748762065463    0.20589288469180
H         0.16928664326048    4.42069364549915    0.24788143224248
H        -1.56168290571626    5.38930678055639    2.56930800364880
H        -0.45265478460804    6.38004059814940    1.62274263137989
H         0.57466627081547    5.66976789800204    3.77919954459764
H         1.46502082449744    5.03643564293832    2.39455039646633
H        -0.59037822425322    3.51580560130487    4.05852618657444
H         1.15778510851096    3.27410439336980    4.10360115711088
C         2.79778891608896   -8.50714112973573    7.55063116816773
O         3.73466712080625   -7.84663108528087    6.72545435953868
C         3.28638886352640   -7.16990581685882    5.63593599939010
C         1.95313140486249   -7.06030320600632    5.25051940503848
C         1.61648408733950   -6.34175418931581    4.11714313769093
C         2.58806760867576   -5.72501082171213    3.33581242154983
C         2.23088183038380   -4.97329422457345    2.12442644729619
C         3.01967339675323   -5.05747701392513    0.97574969349478
C         2.68735002178521   -4.34800042742680   -0.16520774845924
C         1.56610855541455   -3.53973554033175   -0.18869236330359
C         0.78035853991336   -3.43475113799319    0.95890111042965
N        -0.35044886019251   -2.59959976523138    0.95038595392663
C        -1.31184431933550   -2.85785071740243    0.11750152805579
C        -2.39604760961851   -1.92856729586307    0.07329630335914
C        -3.49848192907346   -2.03048071883013   -0.78185498699399
C        -4.46501692379024   -1.04913369964414   -0.75534335533153
C        -4.29507904629546    0.01711369266638    0.13555628510320
C        -5.33306567885347    1.10578330938841    0.19893078162550
F        -4.97748207213138    2.11573312825392    1.00340545596096
F        -5.58028105062603    1.63710060478684   -1.00775582600318
F        -6.51118931224972    0.64795547264678    0.65955994318202
C        -3.18232603190342    0.05992925182138    0.95708744566568
N        -2.25056783926449   -0.88775078663621    0.93668176920547
C         1.10648647915484   -4.15258273194747    2.10394106781665
C         3.92282436523853   -5.84013079927328    3.72992797231971
C         4.26726445693857   -6.54335135025357    4.86128188645101
H         2.25003591256167   -9.27510378940725    6.99649699296076
H         3.38336885076125   -8.97919785999123    8.33732403394183
H         2.09285604825307   -7.79988639114622    7.99739206679581
H         1.17143822598583   -7.53565251505198    5.82126646737035
H         0.57881463733844   -6.29072556219364    3.82367445476196
H         3.88662799074710   -5.69917620425393    0.97302893329022
H         3.30316012091988   -4.42869562080748   -1.04748182101207
H         1.31067263174677   -2.96026296616699   -1.06158900442815
H        -1.28959014878234   -3.73265600680525   -0.52155243050915
H        -3.57318708885294   -2.86652604678865   -1.45805519702912
H        -5.32798374369986   -1.08897339843138   -1.40177098406216
H        -3.03902551217192    0.87869617934119    1.64555410203516
H         0.46799766593818   -4.07971843354624    2.96924881637454
H         4.69618530769742   -5.35334412369282    3.15570038867124
H         5.29638081115886   -6.62927511621082    5.17194063794252
Cl        0.26964056101282   -0.03666371135319   -0.39181248977603
