81
 energy: -119.193974185139 gnorm: 0.000524807263 xtb: 6.4.1 (afa7bdf)
Ir       -0.35753915752339   -0.92642757650810    1.36371827289661
C        -1.87477719376783    1.07966627306409    3.70276757850263
C        -0.64821993255055    0.42224484407325    3.16537318944125
C        -0.23560598731747   -0.89917608416183    3.57741117237629
C        -0.93676584756065   -1.73744874767848    4.59311510978135
C         1.10521406074862   -1.11579909463383    3.10612955179483
C         1.98926245736134   -2.23193955077205    3.54422692235232
C         1.45698417132478   -0.01066242127280    2.28737591854268
C         2.79579774180750    0.24240275418073    1.67853185598763
C         0.36815768154064    0.96114884214375    2.33222889640112
C         0.51319695690606    2.36436691834521    1.80840048157190
C        -0.62192700296623    2.83325945213373    0.89167721814108
C        -0.30533971723847    4.22565511998619    0.35276322734338
C        -0.11824543877383    5.21507492642656    1.50066266504742
C         0.99265184331214    4.74516389177239    2.43625069072659
C         0.68983873103054    3.34968292086861    2.97491239048630
H        -2.72497052806745    0.40102506205063    3.68364055527008
H        -2.12970239020698    1.98090424399454    3.15712725629353
H        -1.69228807971992    1.34925806602266    4.74396507848962
H        -0.64280395996495   -2.77977476038457    4.50755823851950
H        -0.66920466777529   -1.39087718529317    5.59192115836201
H        -2.01591209704827   -1.66507059137827    4.48919169722388
H         1.44071212982011   -3.16684198312891    3.62683133784021
H         2.81923494878893   -2.37978437331579    2.86023054643536
H         2.39301164240891   -1.98852641757804    4.52755137135821
H         3.39872812287461   -0.66077693962625    1.67570677086683
H         2.69500955032852    0.59419448589061    0.65360769776631
H         3.32022624572307    1.00658230148584    2.25251731329995
H         1.42853145959475    2.39455710879986    1.20955221818823
H        -1.56663379878823    2.87926195105877    1.43377563080849
H        -0.72988724628621    2.12893928180530    0.06527854517195
H        -1.11370186364043    4.56128773744727   -0.29985909682577
H         0.60741461092953    4.18727016978394   -0.24625750170431
H        -1.05196722767543    5.30427354766116    2.06120587924397
H         0.12519698949073    6.20283816368558    1.10379259117222
H         1.09932810284796    5.44426879572119    3.26839980782667
H         1.93978153039347    4.73011765475167    1.89182735452647
H        -0.21993444058966    3.38448279786046    3.57468766420386
H         1.50514974000039    3.01541761278185    3.61966672849490
C         5.14517416844220   -9.37011926968138    2.46704357180923
O         5.16912979804717   -8.08434690602374    1.87859734270584
C         4.01944364676506   -7.37558036349274    1.78284564184434
C         2.76222049016849   -7.83433099299020    2.23355808096979
C         1.65211544082633   -7.04870203284046    2.10061349440499
C         1.72699772948220   -5.76822594614735    1.51399711033929
C         0.59637946467959   -4.94625195978389    1.37109537387307
C         0.71164047908192   -3.68540904155825    0.82549954838800
N        -0.39630231318698   -2.84217630306876    0.72096806766438
C        -1.51366740348218   -3.27563942046910    0.22278395842925
C        -2.59723871253843   -2.34864709263160    0.17505286376244
C        -3.84909324905930   -2.60359890248292   -0.39615710507696
C        -4.80032164818930   -1.61178230253052   -0.41519580937804
C        -4.49077542434021   -0.35517427363586    0.13285208641116
C        -5.43858161168763    0.72674504507262    0.14994897549390
C        -6.73466196537516    0.81332968721156   -0.31598770189451
C        -7.17449797893432    2.11839760031601   -0.02497520839781
C        -6.12642592248429    2.73796892850462    0.59483073977092
O        -5.08188710742358    1.91211334495747    0.70581725324317
C        -3.21411329496224   -0.17813635251718    0.68069812025762
N        -2.30412615736865   -1.13655960135719    0.71497806261186
C         1.97020746459170   -3.21645785899106    0.38031691761820
C         3.07131710443992   -4.01201438318678    0.47994659653779
C         2.99271195684267   -5.30220917436476    1.05916743577043
C         4.11726605439320   -6.12314207003088    1.20442671766763
H         4.81610048444555   -9.32529154900405    3.50906270000126
H         6.17334194730336   -9.72482541011955    2.42830858478333
H         4.50481508428092  -10.05477585735224    1.90387434534075
H         2.67168014131902   -8.80853417224215    2.68618509869984
H         0.69557103467271   -7.40946689249531    2.44801980680130
H        -0.35888192529678   -5.29718576115532    1.73326246843205
H        -1.60741331453709   -4.27776407425047   -0.17809693773701
H        -4.04688314218288   -3.57456815638343   -0.82028676794532
H        -5.76988591521171   -1.78983947125825   -0.84941074825291
H        -7.30132611959124    0.04847540919278   -0.80468658993875
H        -8.13343380315770    2.53989366780035   -0.24409566619906
H        -6.01766300083458    3.72981902030241    0.98701455349872
H        -2.94196790162002    0.78017868230925    1.09595313579571
H         2.01988618211522   -2.23668348282844   -0.06879011067855
H         4.02821192636149   -3.66700231173218    0.11881701956140
H         5.08271469305475   -5.78323046741815    0.86435185596171
Cl        0.11710548043068   -0.30932772988237   -0.89965586716253
