85
 energy: -117.119927927028 gnorm: 0.000468052183 xtb: 6.4.1 (afa7bdf)
Ir       -0.98758341784814   -0.44111981188332    0.68539560593032
C        -2.03587351979421    2.22326284955176    2.77794264018105
C        -0.83928069695898    1.31870453901308    2.77706630412471
C        -0.96629757985821   -0.15991678023815    2.84380723080216
C        -2.11100682979295   -0.73132804769757    3.63925064776478
C         0.39243410640767   -0.64180353794036    3.23616021418477
C         0.66602713427199   -2.05275590533665    3.63475777172389
C         1.22156297454884    0.42213009413049    3.31213304448655
C         2.66467019423157    0.42030456929883    3.67207075189435
C         0.46442498216145    1.65093505353342    3.01758275998117
C         1.10908126487818    3.00045493815682    3.04109437307933
C         1.01692585048199    3.70325819071049    1.67896176986275
C         1.80572016975119    5.00859525699412    1.71118181226093
C         1.27708430646592    5.92611167531137    2.81110349654220
C         1.33601196502050    5.22857707204873    4.16812170057356
C         0.54999879922288    3.92051226113259    4.13593972362335
H        -2.89297660103624    1.75627840337041    2.30350857843026
H        -1.82729886576968    3.16705339815754    2.28417955446685
H        -2.30974384684225    2.43970791175755    3.81138600013891
H        -2.15741271449550   -1.81313984019516    3.56345578520196
H        -1.92263599838777   -0.48203617307997    4.68415769971434
H        -3.06778769108422   -0.30075752795078    3.36465599855003
H         0.03727261046870   -2.74421573069982    3.08504243622060
H         1.70704745544326   -2.31001534913558    3.46691147282508
H         0.45981729730516   -2.17262991436580    4.69880643951433
H         3.01714233617812   -0.59023623087471    3.85278016348372
H         3.25330455220708    0.85149716536809    2.86244304870180
H         2.83902621025204    1.01169916100560    4.57057551878769
H         2.17247839187750    2.85992024781672    3.25407699707470
H        -0.02340192261942    3.92185399897847    1.43648787438830
H         1.41274632003800    3.04343846842983    0.90392650515500
H         1.73559591404823    5.50998568447032    0.74274149954426
H         2.86148624216205    4.79412684037560    1.89512524185867
H         0.24321093473578    6.20116615093625    2.58894483062430
H         1.86569571019483    6.84566080464267    2.84047855104406
H         0.92819999788712    5.88555221016198    4.93979847044667
H         2.37876526200311    5.02507822085455    4.42420707305369
H        -0.49932438344863    4.14041131993595    3.94506703938092
H         0.62126634708026    3.42002597610022    5.10358371466815
C         4.44051408158737   -1.16623800045497   -1.78103542460031
O         3.59770625349774   -2.13533786507040   -1.16476253164710
C         2.39232555616624   -2.32004031156220   -1.69802346063451
O         1.98881447662860   -1.75105484935690   -2.68342948923163
C         1.62076255249508   -3.37313980473990   -0.93416273891266
C         1.34750983631453   -3.09202802364650    0.55789824074505
C        -0.14684612571239   -3.37721386094437    0.33120590478741
N        -1.13763087777888   -2.40737334386253    0.72724283198069
C        -2.32601607209387   -2.84261722114422    1.02494375727909
C        -3.39830719564703   -1.89770410415517    1.09979118402933
C        -4.69878631386716   -2.22764470546016    1.43313299245980
C        -5.64446648339968   -1.20373396784279    1.43645946725605
C        -5.29486644580429    0.03667049969602    0.96731633231411
C        -3.97949067171891    0.29075627992535    0.49014254819159
N        -3.69321901363645    1.42792045626999   -0.16830841980383
C        -2.35917313659409    1.76436935696197   -0.63899400611467
C        -2.23168450174971    3.26982570026560   -0.84173217073119
C        -3.14040779437956    3.74018751569254   -1.98114374006582
C        -4.38280166357423    2.84753557000597   -2.04991473216107
C        -4.75176982066197    2.30009719396991   -0.67318035893539
N        -3.02203120154523   -0.63923041198080    0.72245226611179
C         0.11052813673935   -3.39671006054345   -1.19494670622620
H         4.55867803183261   -1.38621385511531   -2.84370779595725
H         5.39455709701151   -1.22526565014437   -1.26484834050010
H         4.00480072219635   -0.17118024843059   -1.67231039766469
H         2.11583405168834   -4.33057126622673   -1.10122811407219
H         1.84221333356064   -3.75968611448276    1.25602872153446
H         1.54548807069019   -2.06047792685773    0.83145767998414
H        -0.43625177368768   -4.36182611198134    0.70746895319241
H        -2.53123857833402   -3.90185323416827    1.12661552359838
H        -4.95179146675985   -3.23430256519637    1.71564697313873
H        -6.64578126414786   -1.38532278088301    1.79216798320986
H        -6.01576522073366    0.83443104080991    0.98822786814391
H        -2.14376071160737    1.24758884036539   -1.58379711583526
H        -1.60073908659410    1.46067992539104    0.11350342513268
H        -1.19112675964654    3.51306912228397   -1.05673572045382
H        -2.50588568758425    3.77319198042578    0.08602067618991
H        -3.42421969244708    4.77854809230381   -1.80953687728074
H        -2.60909134703726    3.70045354905470   -2.93266927718238
H        -5.23135758350280    3.40776630515588   -2.44192681798259
H        -4.20816669724595    2.00809967886561   -2.72485590785069
H        -4.92170576914169    3.12492856939172    0.02615015266935
H        -5.67193246276446    1.72665710035498   -0.77700572668229
H        -0.28373194004405   -4.25376642454298   -1.73306047620518
H        -0.21323898335608   -2.47855390690579   -1.68412442542441
Cl        1.12019288113754    0.16550222570061   -0.03545505010544
