78
 energy: -125.396448065414 gnorm: 0.000186482644 xtb: 6.4.1 (afa7bdf)
Ir       -0.79023286101497   -0.80916294884081    2.08229789741456
C        -2.31910645549383    1.16598055270953    4.47236601986036
C        -1.13082553822418    0.44836870271471    3.93016165448823
C        -0.70136222445346   -0.86365408369502    4.35136734597295
C         0.64477927461598   -1.05642978872379    3.89216888077841
C         1.59529079445764   -2.09513360719807    4.36760753290562
C         0.99783340877791    0.05969038621748    3.07696828450022
C        -0.08992230938293    1.02316110528926    3.14119227316307
C        -0.03316741856226    2.40892081083270    2.66295317195313
C         1.03785244279858    3.21904651292311    3.03810528630832
C         1.10382659587565    4.53199366280510    2.61766025042889
C         0.11639332997512    5.07008461329889    1.79441983515203
C         0.20801864916588    6.45877208509862    1.31957558609534
C        -0.09417126065523    6.77476071822730   -0.00359518895651
C         0.00455439977580    8.07778941454457   -0.45581695098816
C         0.39703389988419    9.08718546267722    0.40829351024799
C         0.69422029490858    8.78494810203523    1.72739228296727
C         0.60498759417372    7.48111170013091    2.17930012866157
C        -0.95310470712220    4.25671259832970    1.42288988491707
C        -1.03330868059320    2.94962736795360    1.85748840466213
C         2.34587286826310    0.29069206009056    2.48322241436665
C        -1.41151019005449   -1.71191589997496    5.35019022177841
H        -2.08278484484201    1.49299211009952    5.48637222186788
H        -3.19074080238457    0.51880181147952    4.53504183508832
H        -2.54860013464298    2.04977942773328    3.88343236123068
H         2.19710313804631   -1.65542973708402    5.16477725941830
H         2.27325835817890   -2.41095969685137    3.57978811026151
H         1.08229895155243   -2.96059252095743    4.77399553058675
H         1.81058430985621    2.82371240989782    3.67857985211251
H         1.94518446749387    5.14264157837424    2.90921514490898
H        -0.38434445173042    5.99001348300658   -0.68717347433048
H        -0.22374612704883    8.30793063484174   -1.48652375936645
H         0.47138678398843   10.10515468070547    0.05498489902992
H         0.99634205493882    9.56992872386024    2.40551888263033
H         0.82519652220815    7.25543935318516    3.21253276352479
H        -1.73300896417625    4.65978876557217    0.79433928461536
H        -1.85156159335435    2.32643968094083    1.52983877650413
H         2.72432263262435   -0.62241825431229    2.02812561187053
H         2.30165164265430    1.06814696671946    1.72556833034994
H         3.04641432384460    0.59503714281462    3.26118569799036
H        -2.48847237776796   -1.60203586454292    5.26364290518120
H        -1.15483905306133   -2.76055952619942    5.23168704373223
H        -1.11845166390851   -1.40103952918532    6.35359656200359
C        -8.45885796151054   -0.77386113356991   -1.35373191332538
O        -7.22449778690534   -0.69204779888056   -0.64091588949274
C        -6.29318580997543   -1.58715739013656   -0.94038834232356
O        -6.41620039130920   -2.45995358885925   -1.76697324747202
C        -5.04935683438848   -1.39416234473190   -0.13089655589195
C        -4.93602653172315   -0.40207673643227    0.84755554227949
C        -3.75280417357667   -0.28835173990275    1.55098436083147
N        -2.70718020231300   -1.09020865978443    1.35152303289776
C        -2.80389240033693   -2.04888641077931    0.39480074633130
C        -1.61257862101572   -2.82239867135205    0.22499493936526
N        -0.60962922076128   -2.53597884344318    0.99269236427023
C         0.61342285452926   -3.19717696217423    0.78819243304088
C         1.18866956892218   -3.94392299953861    1.80484931210238
C         2.42016374705738   -4.58091000846400    1.62744524666092
O         2.87627655612054   -5.27139959752552    2.69096020428235
C         4.11614408019058   -5.95089868578156    2.59341603950867
C         3.08059709525449   -4.45544289829572    0.40481301560180
C         2.50235215639003   -3.73109596365459   -0.62404235296615
C         1.27680511674759   -3.12486169270844   -0.44224801286236
F         0.71339585767574   -2.44790931275126   -1.46523102173216
C        -3.96318103300145   -2.22424220815570   -0.35918962308148
H        -8.27434149003928   -0.77467882308815   -2.42906741367595
H        -8.98610637715906   -1.69040148163493   -1.08475850510953
H        -9.03169397766929    0.10055661110996   -1.05898324755853
H        -5.75970686248412    0.26195938607375    1.05078158206516
H        -3.64386601141991    0.47392816015115    2.30746569699854
H        -1.55938592505769   -3.60270007522093   -0.52540266371147
H         0.66359602177913   -4.07212039076552    2.73542621011716
H         4.93742065857522   -5.25288508311746    2.41136928302413
H         4.09277438743441   -6.70961832257688    1.80744606650054
H         4.25633344393319   -6.43288370600515    3.55848221325361
H         4.03502390780964   -4.92486925904690    0.23595832791294
H         2.99375708891643   -3.64106836484383   -1.57950933294852
H        -4.01819227809548   -2.98747286062687   -1.11953782584712
Cl       -0.40526073241597    0.25179368955004   -0.01506723475137
