90
 energy: -143.374555310930 gnorm: 0.000686056658 xtb: 6.4.1 (afa7bdf)
Ir       -0.77708279722097   -0.46139413423649    1.48176257930685
C        -1.90223766305946    1.05755754897382    4.32254108286118
C        -0.76455492960418    0.50928006730246    3.53570591872027
C        -0.31268691028686   -0.84657557330782    3.62019548967758
C         0.91487430628699   -0.95326158560885    2.87093500836046
C         1.86223909397422   -2.10183331642404    2.90989739641356
C         1.17949181244961    0.31080196171553    2.27172067841446
C         0.12571994023407    1.22992218621856    2.66938665309896
C         0.23692897116647    2.68304145293589    2.51155772399173
C         0.09391445367149    3.52281104573569    3.61635718422677
C         0.34137537325146    4.87525150146079    3.50573057576879
C         0.74731337200047    5.43595100648377    2.29546818682070
C         1.07317844341157    6.86579766579112    2.20673244107086
C         2.14122080951817    7.30090574991565    1.42224784321295
C         2.46491258099547    8.64356637599364    1.35165467869620
C         1.72506924684183    9.57674461576379    2.06031666409807
C         0.65873030505408    9.15660084707947    2.83932713566300
C         0.33662122481202    7.81383286534226    2.91604841467683
C         0.86585451392762    4.59719544118581    1.18816187057457
C         0.61177975885782    3.24476239314476    1.29121537060045
C         2.43164923523948    0.67664016841826    1.55350723783690
C        -0.86219925482332   -1.88305967703351    4.53980346471841
H        -1.61039015684939    1.10948222654996    5.37242251225210
H        -2.77286490237429    0.40804889463461    4.25829378523550
H        -2.16984541166313    2.05199691681013    3.98019317767053
H         2.58242220309902   -1.92747063465562    3.71050776116599
H         2.40567767517321   -2.19461938733796    1.97379942175303
H         1.34884573126596   -3.03707159895332    3.11228823416629
H        -0.15911010124769    3.11188766338620    4.58030173544240
H         0.25806234953391    5.50257910653923    4.38030094246539
H         2.73617171605540    6.58088239637443    0.88034616326681
H         3.29914512498555    8.96344901190225    0.74425219625690
H         1.97761293325491   10.62546047364110    2.00540526950826
H         0.07234948161560    9.87948118566751    3.38735605589594
H        -0.51608291529891    7.50376584893153    3.50118360180357
H         1.14868808427535    5.01291896903441    0.23286799344006
H         0.69065450659315    2.61484433114708    0.41917808536921
H         2.32897320975259    0.52079626620914    0.47984561504772
H         2.65679877760870    1.72928272129023    1.71470115963508
H         3.26040930622597    0.06978266357342    1.90962803802281
H        -1.93498765513091   -1.76756931448388    4.66685194159002
H        -0.65171283043136   -2.88449493132250    4.17460750492870
H        -0.39309778381271   -1.77508968953645    5.51838889044077
C        -1.36521903633746    7.94670391875930   -0.24171180655936
O        -1.64133284003573    6.56496789280983   -0.03926214338001
C        -2.27796023293790    6.21134231752474    1.07818810873665
O        -2.62891529083176    6.99300479451843    1.93432024610303
C        -2.55035726283895    4.75206008195900    1.13190853819788
C        -2.06479602357858    3.87778941792283    0.16461788619731
C        -2.37962152823141    2.53370351738849    0.22257157832409
C        -3.20656696474525    2.04920378940092    1.23326929424739
C        -3.70154341865821    0.66515260633375    1.15292659007682
C        -5.08727352877586    0.48560314833516    1.09015260279729
C        -5.62160183114125   -0.76475055452302    0.83638343435865
C        -4.74964447908594   -1.82008075455713    0.62972702925543
C        -3.38238077289619   -1.59444622491746    0.75998205796300
C        -2.41303846874128   -2.63712895939979    0.58777273408189
N        -1.17429401987641   -2.35349835875235    0.81250578917933
C        -0.19910105649892   -3.35073045023345    0.66643312537888
C        -0.37577659538383   -4.59550687194008    1.27640117286535
C         0.58757626362035   -5.57595393941532    1.12283678226248
C         1.70829431481028   -5.31566652628726    0.35568196900115
S         2.95817400286120   -6.59791047712306    0.15669819339740
C         4.15897274960744   -6.23770334367785    1.46426195500500
O         2.34492719091581   -7.87777858647643    0.42272464436325
O         3.59555883121054   -6.42091664851881   -1.12608338321817
C         1.89377975787445   -4.08719056038913   -0.25263525679075
C         0.94454887360306   -3.09430738626096   -0.09068070284139
N        -2.86211347152703   -0.37244866404898    1.04971033938574
C        -3.69969201965453    2.92872257051279    2.19874112940416
C        -3.35293158271641    4.26362583130581    2.16107429231457
H        -1.37270511587703    8.11005028693788   -1.31677409554731
H        -2.12256419508664    8.55875551469217    0.25074548818990
H        -0.38527846017545    8.18851958656588    0.17271652969905
H        -1.45940625594711    4.25837216433005   -0.64088000552905
H        -2.01914406014097    1.86498793326044   -0.54152791802315
H        -5.72452847530009    1.34685317296577    1.21099685668211
H        -6.68899483872002   -0.90689094099663    0.77769757490338
H        -5.10624146713916   -2.80700702499618    0.38428378517412
H        -2.72026501883778   -3.61835647466601    0.24231831971858
H        -1.25205559467702   -4.78107581994487    1.87854151778967
H         0.47771649452880   -6.55039828890369    1.57118053589306
H         4.55523114549718   -5.24615395578333    1.29075145862554
H         3.65017010910451   -6.30993322922321    2.41629393044222
H         4.94636334174886   -6.97831454678647    1.39759493136372
H         2.77028870122159   -3.93012006364249   -0.86047384776082
H         1.05638978557095   -2.13272391176564   -0.56708785726527
H        -4.35462710167658    2.56612577442523    2.97644258467066
H        -3.71841154246115    4.95453986083082    2.90514237107543
Cl       -0.26212024116413    0.07157765623533   -0.78012304461914
