86
 energy: -120.121953282024 gnorm: 0.000316996020 xtb: 6.4.1 (afa7bdf)
Ir       -0.50691061227296   -0.48576116151953    1.60257272400621
C        -2.15102795162957    1.63468666887893    3.78717120436627
C        -0.98796627322061    0.77389688602661    3.43750592557786
C        -0.94308261762695   -0.63352310973970    3.77640533586487
C        -2.02960918854152   -1.37412761306565    4.48272960824131
C         0.40394896044786   -1.08165241975741    3.61831403396987
C         0.95864519104161   -2.35513470132340    4.15129146719311
C         1.15331646741134   -0.00876722666582    3.03721250084020
C         2.63575591603992    0.02496319589341    2.85900403844940
C         0.29552641540829    1.16211238792297    2.96954332280362
C         0.84140767107926    2.54450763299150    2.74081420479909
C         0.13714721062071    3.33910821445937    1.63983343250172
C         0.82279863749924    4.68756019702136    1.44631468602426
C         0.82039761056083    5.48281998335576    2.74916191742050
C         1.50637450442017    4.69006318829926    3.85878237208490
C         0.82396024215057    3.33958860282537    4.05684692567437
H        -3.08940670410841    1.12815459606266    3.57502220381645
H        -2.13124426198405    2.58085591004433    3.25901930328933
H        -2.11827940978866    1.83139592745464    4.86017921541764
H        -1.92692929563849   -2.44710753776247    4.34690193465886
H        -1.97816816704251   -1.15991693405283    5.55073336573842
H        -3.00922680047355   -1.06853913805101    4.12595211634760
H         0.21002162335331   -3.14197886584808    4.16117322783735
H         1.82778291962693   -2.68331442868969    3.58900793798237
H         1.27525195700981   -2.18114510121670    5.18119087614843
H         3.07221048268817   -0.96404149448630    2.96021479969773
H         2.90408802891848    0.42642233281640    1.88357316361594
H         3.07373787267898    0.66860112877987    3.62235849893777
H         1.88536439936080    2.43821507112391    2.43131160639221
H        -0.90757776543860    3.51106046892810    1.89677426958008
H         0.16928818922957    2.76953602894478    0.71106856983221
H         0.30881233501523    5.24897735567903    0.66264635245272
H         1.85279968110862    4.53202749644985    1.11727845653836
H        -0.21045636852193    5.69990283207054    3.03935086707431
H         1.33277009176505    6.43611732721433    2.60420365775803
H         1.47575947178848    5.25528052303687    4.79256619806753
H         2.55580295504279    4.53777956581749    3.59643268247931
H        -0.20454718702816    3.50371373687009    4.37722358315942
H         1.33726364897887    2.77531659761949    4.83822472584627
C        -2.87636473441828    8.17092346548812   -0.02879389244105
O        -3.05500697448908    6.78766479415484    0.26126223345964
C        -2.41277273838497    5.91561499239752   -0.52116536652566
O        -1.69305981642998    6.24686158594703   -1.43803360651653
C        -2.67259560290416    4.50579550807395   -0.13579842643707
C        -2.02310852449612    3.49329225003102   -0.83717302868488
C        -2.23331566804489    2.16842938281102   -0.50868199584597
C        -3.10938414710644    1.83452723175852    0.52293474953047
C        -3.45357944935082    0.41815299307925    0.71911279678306
C        -4.81014543423703    0.07635212507904    0.68266044291481
C        -5.19773160929416   -1.24882477202021    0.60472425241182
C        -4.20848217002862   -2.21303148785043    0.50088516017774
C        -2.87939723842616   -1.81636800309973    0.59989827461060
C        -1.78266931984882   -2.73005900438348    0.42291896902540
N        -0.58584355782897   -2.36013235690859    0.70701316316053
C         0.47995697968600   -3.28372394967363    0.33917086277522
C         0.46642526036944   -4.53816843636855    1.22731045666355
C         1.37659917643867   -5.60860555026836    0.61442643809399
C         2.62343456168359   -4.98869245096956   -0.03272878282662
C         2.96854339349755   -3.66550480099836    0.64202419442460
C         1.86540277287360   -2.63342673016972    0.38327610302595
N        -2.50523610506045   -0.52653447656328    0.77934271417462
C        -3.77864042216118    2.85043347404096    1.20880237802456
C        -3.55147956652396    4.17537480942028    0.89517257838515
H        -3.41938726496365    8.43635713108767   -0.93784322564967
H        -1.81756033749597    8.39307037932250   -0.17329118040417
H        -3.27386594783333    8.71185380937317    0.82549484107835
H        -1.35456480429569    3.76272158300904   -1.64014357330056
H        -1.73273099253564    1.39045985633884   -1.06106150364878
H        -5.54285680328422    0.86710038710543    0.67174645810574
H        -6.24164191924080   -1.51791403242991    0.57817794583902
H        -4.44812306773686   -3.25409398237250    0.35940094283382
H        -1.98756020586994   -3.69408026923661   -0.03355893240673
H         0.27532271200529   -3.60942208756433   -0.68796471988327
H         0.81890344373192   -4.27329126223764    2.22081685501993
H        -0.54683245772245   -4.92889207220811    1.32312124186096
H         0.82760450546256   -6.18083785496873   -0.13487076197158
H         1.67257677167561   -6.30325694131598    1.40161347939724
H         3.46340023736653   -5.68001353822941    0.04287435478404
H         2.44900368944270   -4.80610031555587   -1.09458444113949
H         3.91425802825527   -3.28390115311232    0.25679131764625
H         3.09898907942351   -3.83916737211169    1.71139084149021
H         2.04615428927607   -2.12875772506575   -0.56520140443018
H         1.87893329969333   -1.86881311889489    1.15702606249146
H        -4.47104343288029    2.60500725626291    1.99967468374468
H        -4.05758514494926    4.95978385708291    1.43468336396869
Cl        0.45975637692320    0.24518774821751   -0.43977862629875
