67
 energy: -99.657454623040 gnorm: 0.000248438419 xtb: 6.4.1 (afa7bdf)
Ir       -0.79786998688420   -0.74200925438056    1.42929042442953
C        -2.00710967495007    1.62249426683969    3.81697985204140
C        -0.96575336094884    0.71915988321140    3.25772684671685
C        -0.87197856815816   -0.67647421442063    3.66150291493384
C        -1.81226782539066   -1.34031933972539    4.60788361085109
C         0.40943794319692   -1.16765088238259    3.27817547265715
C         1.04238175084846   -2.42272990757051    3.76735371445267
C         1.03254474037209   -0.15116355222984    2.47234825574240
C         2.44822496063162   -0.17029443057012    2.00613038844290
C         0.19499283569767    1.04592835279282    2.52251761414484
C         0.69173582980664    2.39454135805091    2.08324961362601
C        -0.23591542583802    3.15919803883875    1.13470596624228
C         0.42938771064721    4.46201509348583    0.70111467136264
C         0.75705176433759    5.32540099035369    1.91661875447190
C         1.66036746358566    4.56512966669570    2.88386686926690
C         1.00331816843229    3.25794806278766    3.31844927422263
H        -2.98826224104875    1.15533788333009    3.80433209234939
H        -2.06434903292641    2.56591388363762    3.28773662136508
H        -1.75153757209433    1.82017654215043    4.85933281136381
H        -1.72184444577432   -2.42159270956409    4.56027098968042
H        -1.57468769215105   -1.02373213854054    5.62415298403597
H        -2.84248887877581   -1.06148347329089    4.40347612036265
H         0.31031744737524   -3.21174597808571    3.91512710002692
H         1.81233801380621   -2.77769248105190    3.08937114088120
H         1.50793652519864   -2.21092230094105    4.73083536080739
H         2.83328003645332   -1.18439003358226    1.96511527874984
H         2.54170894687458    0.28059236205159    1.02125763143573
H         3.05966804412604    0.40461070906727    2.70215206429942
H         1.63094324535457    2.23861859666492    1.54465295274691
H        -1.18242595703989    3.39337120552989    1.62033292779481
H        -0.44617366559265    2.54126585305121    0.26164576043461
H        -0.23585540555324    5.00547753837817    0.02755247815706
H         1.34822338432350    4.24184094345781    0.15240192516781
H        -0.16957717380002    5.60295604776277    2.42436033644332
H         1.24834221010249    6.24633935437036    1.59643767072450
H         1.86523516207517    5.18029275026001    3.76249362280910
H         2.61483484754734    4.35384346421865    2.39615781453652
H         0.08189106957369    3.48156361112443    3.85488633849604
H         1.66690631871165    2.71460180721462    3.99382462583591
C         4.02740636486391   -5.71976609495349    0.65932524658584
C         2.77293774019861   -4.91132156495406    0.67394351801351
C         2.73998549710735   -3.62076923903997    0.14952334536451
C         1.58784998985826   -2.86205683819360    0.19263394098281
C         0.42320795187847   -3.39530990780103    0.74688333768000
N        -0.74558078209596   -2.62860220842001    0.74439492004091
C        -1.85658090736310   -3.17702414690476    0.35932751048826
C        -3.01233543414182   -2.34655009799868    0.26158372357725
N        -2.84780864655359   -1.06363518756481    0.66440586397498
C        -3.83185031932408   -0.20442607285121    0.42296777446543
Br       -3.54275900604482    1.59973372269323    0.83813585130345
C        -5.05328314508277   -0.56423360801162   -0.13317260991815
C        -5.26440692026967   -1.88614642165458   -0.49599591865549
C        -4.22029165965511   -2.77043413030360   -0.30921185075019
F        -4.33844710589108   -4.04911184960369   -0.68236651015833
C         0.44001358032735   -4.69359353681550    1.26488518019571
C         1.60568357438979   -5.42911097765655    1.23532732920158
H         3.81319434206695   -6.75962729669801    0.42347538258019
H         4.73780047932219   -5.32926809225402   -0.06403701953703
H         4.49520124395109   -5.69517023612145    1.64383764571659
H         3.62854822392606   -3.20662268732038   -0.30226052993131
H         1.55473299016456   -1.87453016269915   -0.23947670915027
H        -1.90224038325300   -4.20796201082901    0.02752208577427
H        -5.81861443379368    0.18148348907732   -0.27682122136583
H        -6.19597821486446   -2.21672462039956   -0.92707217476869
H        -0.45048020318728   -5.10344978579731    1.71652233773098
H         1.61495430472921   -6.42510464281610    1.65118130526629
Cl       -0.41997063327928    0.01977663695096   -0.79263164679440
