58
 energy: -101.170927896100 gnorm: 0.000566992527 xtb: 6.4.1 (afa7bdf)
Ir       -0.86391158799607   -1.01747052669187    1.06260780633414
C        -1.80970225134381    1.67870052124036    2.97968672459680
C        -0.78542624888912    0.67651560191868    2.57263223263411
C        -0.57460708851875   -0.59887765693629    3.23098983789058
C        -1.33441958432931   -1.08090606031524    4.41739508406162
C         0.65149276421370   -1.15509593751708    2.73591737327786
C         1.36374106010323   -2.33490529693199    3.29607052448883
C         1.12746404672351   -0.29949915949948    1.69222948562878
C         2.45567425389508   -0.37496470381053    1.02225718299943
C         0.25258612336126    0.86240578483481    1.62881008983566
C         0.54396566575700    2.08013388431409    0.82434401650833
H        -1.41060968735404    2.26412916101629    3.80909633018789
H        -2.72406170447647    1.20154748460483    3.32280214492509
H        -2.04324664957738    2.36615982664322    2.17070019185377
H        -2.39034657798032   -0.83749502226800    4.33796039357111
H        -1.22718153887505   -2.15397581031941    4.54494275324958
H        -0.94391517778800   -0.59171072211221    5.31061431400279
H         0.67068762520167   -3.05184527850621    3.72569332783963
H         1.96268338124538   -2.83480837363007    2.54000376762649
H         2.03249179592268   -1.99229524825203    4.08639970221000
H         2.38376432109045   -0.04129645198777   -0.01014673818365
H         2.85531076644155   -1.38417870156195    1.05495273823198
H         3.15118515637273    0.28596199845958    1.54076719150099
H        -0.26686074742094    2.79958818673167    0.88075330212032
H         0.70874696196553    1.82064412749580   -0.21976144506777
H         1.45389189424221    2.54733124950572    1.20044342152271
C         3.42372190669744   -3.08360256620923   -1.81395426669046
O         3.34540447226041   -4.21189699822057   -0.95938043261225
C         2.23032683995011   -4.40019185199090   -0.23493302623687
C         1.14930680848240   -3.52754139282715   -0.16959002129426
C         0.02190679056280   -3.85510778957239    0.58501396334141
N        -1.05937034189972   -2.96024935903654    0.58927531089183
C        -2.24415818264492   -3.38938665153331    0.27457611003119
C        -3.29811937173298   -2.42350596306035    0.25848737762831
C        -4.59843743887450   -2.67724222304628   -0.18981057575664
C        -5.51150825435412   -1.64453053198048   -0.22771812199253
C        -5.08883572655555   -0.37677957785501    0.18272553599830
C        -6.02493195712613    0.80153914555898    0.12399416839510
F        -5.75309025663175    1.71411193691133    1.06915118129769
F        -5.94555613412132    1.44396397437675   -1.05574002942941
F        -7.30647741134924    0.44753823148051    0.28053707796148
C        -3.78626215543172   -0.19182567307717    0.61983645475418
N        -2.91238425012694   -1.18863339502368    0.67226065189075
C        -0.03799924180584   -5.04324061800259    1.30745239198016
C         1.04863525802231   -5.90177141909309    1.28377215840787
C         2.15281922989629   -5.58438199683084    0.52199808414332
F         3.19605682622404   -6.43664245671712    0.49300308759137
H         2.60463765933347   -3.08017858928203   -2.53668369272036
H         4.37216160238588   -3.18482633475497   -2.33670383419246
H         3.41849637437656   -2.15379092996980   -1.24185165425310
H         1.13542196897346   -2.60936522261519   -0.73476944082808
H        -2.41651505311307   -4.41718506848090   -0.02075496668623
H        -4.86979231954870   -3.66976060287393   -0.51073081715930
H        -6.52470780537315   -1.80165395071265   -0.56415918489062
H        -3.44525545017495    0.78288066431127    0.93758929131556
H        -0.90522468166591   -5.27910905462998    1.90184787646570
H         1.04438252401133   -6.82379625616976    1.84177932174498
Cl       -0.68064920060391   -0.53976135554691   -1.26224873289705
