68
 energy: -115.776661148304 gnorm: 0.002576935646 xtb: 6.4.1 (afa7bdf)
Ir        0.06004915183537    0.45469613293095    1.51350206781953
C        -1.40847920421810    2.10178474678393    4.25938948725203
C        -0.34938659230281    1.18436109495735    3.76317922796773
C        -0.56426679160418   -0.23826719693815    3.47133501551144
C        -1.79392883117574   -0.99187800823656    3.85213541301123
C         0.71613994383241   -0.82510979233648    3.19647092971975
C         1.05033431115303   -2.27885450304575    3.24027495135100
C         1.63710552977252    0.25121508127476    3.03166150021913
C         3.11394682393044    0.08211574564773    2.87969245041522
C         0.98255055007283    1.48327827173113    3.50491386451467
C         1.64818853471524    2.76198216537965    3.75982803451983
C         1.48922579956576    3.36831942958738    5.00631209947118
C         2.12514362750924    4.56693799136049    5.26174452012151
F         1.96480651232730    5.14043046095960    6.47453875807141
C         2.92187060118368    5.20448199085236    4.32678046191771
C         3.05747681596146    4.58240335772177    3.09878774903116
F         3.81841722542523    5.17153101931615    2.15221836741831
C         2.44189760830841    3.38279686472036    2.79693445244629
H        -1.10613092793143    3.14102858588928    4.15702952402971
H        -1.60409785586520    1.89873243553465    5.31271260233872
H        -2.34049287498603    1.94376122229394    3.72063982484734
H        -1.86202287701135   -1.92597167177604    3.30136780940720
H        -1.75421122160744   -1.22656083964518    4.91660777756480
H        -2.69159988274735   -0.40706453092817    3.66919895307007
H         1.23724145786253   -2.55684156794292    4.27736879239294
H         0.23133701558753   -2.88686970104856    2.87017470379789
H         1.94056812823121   -2.49806734754611    2.65945367682433
H         3.34332375361340   -0.65762272949183    2.11703244766796
H         3.60129476350260    1.02084768610446    2.63618355416386
H         3.52441696079811   -0.27332460877467    3.82524877460836
H         0.89748591131994    2.90619930376683    5.77884381093716
H         3.41093072933531    6.13907828814785    4.54473863203262
H         2.56536755910023    2.96325723357002    1.81191882029896
C        -5.86069881122249    1.13359505408263   -2.37134010081223
O        -4.80747016248745    0.21034394220331   -2.13604814734952
C        -3.83686767854455    0.51725229096486   -1.28132357338354
C        -3.73057856154933    1.71664492634505   -0.56402386614721
C        -2.66563000930566    1.90537637448729    0.29816174726426
N        -1.72843733641507    0.98609410485967    0.47124749526655
C        -1.82019026064531   -0.18484984747674   -0.21084120705608
C        -0.65588010471249   -0.96209341957108    0.21244750871517
N        -0.41169295152308   -2.12806557500440   -0.15282908323625
C         0.64518263572431   -2.97317781171341    0.01825113196602
C         1.96632699190929   -2.54400508341028   -0.16732682421790
C         3.00311520238768   -3.45253175184501   -0.09329465347513
C         2.72539922638699   -4.78113609849279    0.18020571101412
S         4.07760101662552   -5.95470198845346    0.29381069887196
C         4.76760138222250   -5.68368712432093    1.95223241154207
O         5.08774963976761   -5.60380732243630   -0.68063972378882
O         3.54290847208093   -7.29642544052410    0.23019521328975
C         1.42618255653219   -5.22093558539661    0.36582323655138
C         0.38122918284538   -4.32406555826599    0.27297948222654
C        -2.83953220256433   -0.45897809707468   -1.08887623450733
H        -6.41311708683410    1.34140706027582   -1.45218455392334
H        -5.48062671462068    2.06353402417309   -2.80030349527413
H        -6.51773273285517    0.64517512578240   -3.08769725846199
H        -4.46125997276664    2.50098714459787   -0.66879799874517
H        -2.56381376158279    2.82381451275880    0.85806685801639
H         2.50242360959821    1.29249095534189   -0.53367858477371
H         2.14801176464978   -1.50438841987352   -0.38889690042804
H         4.02684113998273   -3.15807451231314   -0.25855402391259
H         3.97603967323477   -5.84902979683208    2.67297978271876
H         5.56626532700472   -6.40179889967245    2.09227268367040
H         5.15302305042000   -4.67308658103652    1.99707424568577
H         1.25943011619048   -6.26854085009017    0.55780915749874
H        -0.63732453752192   -4.64891794160310    0.40378267529657
H        -2.88850873854798   -1.39593070737360   -1.61578241313398
Cl        1.26036040412561    1.52891230139065   -0.37078347138044
