61
 energy: -95.563303331851 gnorm: 0.000503568825 xtb: 6.4.1 (afa7bdf)
Ir        0.22077929405019   -0.44459793939400    1.40158585202514
C        -2.51157198847758    0.01588811459689    3.32043892676077
C        -1.04138444682704   -0.15425476087732    3.19550167456053
C        -0.35008972126272   -1.39883206479441    3.37869155275425
C        -1.00038402880282   -2.70709250463915    3.67599746207969
C         1.04107654949339   -1.10356211405587    3.32654923461745
C         2.15481872966164   -2.05917788958835    3.58581240537382
C         1.19770403930216    0.36792500500182    3.32146802500060
C         2.49843675454759    1.06147149937850    3.54330732883862
C        -0.07151481248481    0.93617216366572    3.26349297901433
C        -0.43638283224080    2.37894655232079    3.34175242144126
H        -2.76998478642893    0.03026733304365    4.38064913941734
H        -3.04360687641601   -0.80943258418994    2.85385893790244
H        -2.84642640518159    0.95062842801867    2.87854077206223
H        -1.83525794712672   -2.89548525020952    3.00459482027575
H        -0.28918631328372   -3.52405470481130    3.60384060199101
H        -1.39048031678577   -2.68435206651477    4.69396207461659
H         1.89474660169932   -3.06177731949381    3.25707739020055
H         3.07043102410040   -1.75032238526509    3.08854679364295
H         2.35083398424707   -2.09003857592368    4.65831068402593
H         2.46374895262986    2.09042905473424    3.19840963019461
H         3.31465425457271    0.54296634541642    3.04857123466909
H         2.71187532660681    1.07097767713182    4.61278646634847
H        -0.80166863397294    2.60834416158841    4.34312924350623
H        -1.22886066292079    2.61881276943032    2.63558728232424
H         0.42058393558145    3.01343324142758    3.13647171259512
C        -2.08582004563382    4.06959497264031   -1.05812139352200
O        -1.27821431514311    2.90521887474619   -1.00169091962448
C        -1.81362048717233    1.75459910819116   -0.57705882916433
C        -3.12829568955808    1.56946120685078   -0.15884134808027
C        -3.54057367318776    0.28655563186707    0.19318027889580
N        -2.76238055154620   -0.77196294505690    0.21427192756741
C        -1.48795465129238   -0.61564748680310   -0.17251746040417
C        -0.53135875949174   -1.69187521239017   -0.00307514696079
N        -0.30984691173353   -2.74326395440453   -0.60165095573849
C         0.55417011876444   -3.79415504724892   -0.47611271768673
C         1.43715845625996   -4.06476058223087   -1.52817299785171
C         2.25924905585992   -5.17127447126026   -1.46417372383424
C         2.19409381507175   -6.01005922845574   -0.36463570315257
S         3.27433702131346   -7.43954605078344   -0.29938224070354
C         4.87802708031722   -6.76242456896865    0.21329860463662
O         3.41292542405546   -7.98245592158880   -1.63218777755199
O         2.80238608295749   -8.33936887782151    0.72957593581149
C         1.31854006576673   -5.76090546591692    0.67655905694733
C         0.49534787795361   -4.65306896016352    0.62659630923518
C        -0.95172594458232    0.63541850229895   -0.57795074302605
H        -2.93068427504655    3.93088578856922   -1.73682084671239
H        -2.44989738131131    4.34665188156305   -0.06583412295410
H        -1.43635647419763    4.85356625380579   -1.44076758088238
H        -3.84024092020334    2.37717681874538   -0.14513218635341
H        -4.56761481913367    0.10780197680951    0.48035692167727
H         3.03841777593781    0.50222925845655   -0.04206545943930
H         1.46624683955226   -3.40514704429790   -2.38089842933140
H         2.93726100281290   -5.41222747455951   -2.26711304361693
H         4.76010219373838   -6.33637425222777    1.20055486303115
H         5.58774123780763   -7.58021241678316    0.23214710829144
H         5.17391308699454   -6.01836549259956   -0.51438799306598
H         1.29237669847405   -6.44913886682554    1.50646391860583
H        -0.21039188697173   -4.44890222902335    1.41511431611974
H        -0.02866276300464    0.71895584589271   -1.14056866480909
Cl        2.30947004133426   -0.54021675700959    0.05036839739424
