72
 energy: -115.814977027859 gnorm: 0.000804449916 xtb: 6.4.1 (afa7bdf)
Ir       -1.15880816423224   -1.16885603461273    1.82613411978895
C        -1.08800047489403    0.69575203183218    3.96643786912077
C        -0.09755738599263    0.32304041315159    2.88994553866071
C         0.63124869380372   -0.95416767042736    2.95833186231752
C         0.51850477178694   -1.90962291511171    4.12354969800973
C         1.86102482564721   -0.75728853955115    2.24480294855046
C         2.89112921346367   -1.79104999614268    2.00747928932932
C         1.90776186830860    0.56366295110702    1.76550892850929
C         3.00673327038389    1.12926997593681    0.93350804761665
C         0.73005279753639    1.22946858735429    2.12511577671919
C         0.39708856771092    2.61652852156669    1.69336483668308
C        -1.02081924174901    2.75749652054762    1.12688821438528
C        -1.22875965370484    4.17731851763682    0.60869153828589
C        -1.01984681492120    5.19049014340048    1.73207343542771
C         0.37502149542573    5.04247895738880    2.33434247205592
C         0.59934999796190    3.62156809146817    2.84351090219995
H        -1.88131316786631   -0.06083713850759    4.05793669863992
H        -1.54793342176368    1.65871072104401    3.77323127623018
H        -0.57925424227509    0.74126226433497    4.93045715699419
H         0.97205488358160   -2.86778576856084    3.88566981257811
H         1.04563028568600   -1.49427141787874    4.98301334410078
H        -0.51629129625626   -2.07760044728336    4.42482559844107
H         2.57386618151494   -2.76349126961956    2.37079030606975
H         3.10797034456254   -1.87049467507025    0.94280451882790
H         3.81955982294374   -1.51379044845516    2.50679070675651
H         2.69043092252753    1.20298525883465   -0.10714833465900
H         3.27906015658552    2.12507513047722    1.27670040400083
H         3.88678979847083    0.49525775964541    0.97664294735892
H         1.09377115738622    2.89103572408442    0.89572818018216
H        -1.76024828646615    2.55599997120338    1.90060870171608
H        -1.15733165363400    2.03320609367151    0.32259281369196
H        -2.23594733739625    4.28068252859101    0.20105008367227
H        -0.52243297936125    4.38073930059053   -0.19906578792768
H        -1.76986021989550    5.03302480263022    2.51081779280677
H        -1.14966079361658    6.20423249778679    1.34808776176209
H         0.50135273221372    5.74925884142533    3.15743935578901
H         1.12319161293222    5.28110161496407    1.57499422236331
H        -0.10064836235141    3.41191802666695    3.65207484913990
H         1.61081800594830    3.52344508819600    3.24133125064963
C        -7.04455506328717    0.37350582190518   -1.81624815207826
O        -6.16459355104558   -0.74110855473628   -1.76935477500534
C        -5.17954410090191   -0.76222556057620   -0.87893443946290
C        -4.91145436575370    0.23351559255190    0.07213996923986
C        -3.83791425685998    0.07860862138359    0.92504373950537
N        -3.03634374233214   -0.97917229906273    0.90959285274251
C        -3.28697603222760   -1.95897859408171    0.00478303149050
C        -2.37722210478881   -3.07263696436614    0.07520225948676
N        -1.55105218131356   -3.09197686170388    1.06732096498613
C        -0.55702768626094   -4.07183318627964    1.17478050344964
C         0.33314103769274   -4.29275054384177    0.12946134641104
C         1.37442733036243   -5.19236242171971    0.29156923771444
C         2.36430792041804   -5.36962605865252   -0.82056704327287
F         3.35114557395392   -4.44481897854543   -0.77462402743128
F         1.80946240761442   -5.25051153016248   -2.03991572195948
F         2.97934733777370   -6.56395477674173   -0.79760493949544
C         1.53187490422155   -5.88630455779804    1.48883063556860
C         0.63787504972476   -5.68380974071261    2.51933098617549
C        -0.41552256700695   -4.78054973068286    2.38341213013914
O        -1.26734747891965   -4.63122266732440    3.40450661249678
C        -4.33659573447995   -1.88357318830268   -0.89292593405767
H        -6.50226462888214    1.29003413834732   -2.05788803502144
H        -7.58062574712009    0.49040451798006   -0.87215677343584
H        -7.75279396048592    0.14913005546389   -2.61048718542132
H        -5.51651014111492    1.12079248651881    0.14655551994900
H        -3.61052378868024    0.84290896870545    1.65301238469176
H        -2.41142789677436   -3.86233358205667   -0.66680878303592
H         0.22981450108209   -3.72518078091086   -0.78227438570143
H         2.34768506983374   -6.58189013418241    1.60520915346711
H         0.73548379411136   -6.21843199639275    3.45000228075980
H        -2.00176601736924   -4.04095062366005    3.17653379154286
H        -4.51306700723160   -2.66930506380298   -1.60843831021807
Cl       -0.22968678376856   -0.71253082110863   -0.24159303109584
