66
 energy: -95.718173362893 gnorm: 0.000535278670 xtb: 6.4.1 (afa7bdf)
Ir       -0.96094253722273   -0.72282917183849    1.23367709080031
C        -2.16431809432459    1.46714005563708    3.66539396801850
C        -1.17750219009203    0.46340192406042    3.17362062282922
C        -1.31808562403671   -0.96213822130111    3.40937925436831
C        -2.46013967268392   -1.58640506877787    4.13723556193447
C        -0.06328085816792   -1.58258667178586    3.12353719309448
C         0.31199228191306   -2.98130727329518    3.46377623218399
C         0.79352665893573   -0.58693202047313    2.55735233727176
C         2.23920990535990   -0.74105228910553    2.23540867927248
C         0.11231618134416    0.69408241582823    2.63955566296202
C         0.78546396963005    1.99759294387670    2.36751208879841
H        -2.27100142736272    1.35022725130145    4.74426618043646
H        -3.14314886046157    1.31700989463642    3.21651527386223
H        -1.83127307471395    2.48088352833672    3.46497230218206
H        -3.39851937468674   -1.10471692741655    3.87668881567329
H        -2.53427435865343   -2.64783004173159    3.91752977339878
H        -2.30746912310267   -1.47459986956503    5.21157053605668
H        -0.53412272541795   -3.65648023585193    3.36768178578207
H         1.12369145369592   -3.34072312778901    2.83754438878087
H         0.64749246621442   -3.00776889978856    4.50134535215372
H         2.51161611294229   -0.10992016530167    1.39346587102255
H         2.48352705844747   -1.77249292127171    1.99768094521814
H         2.83546472930977   -0.43569087558499    3.09619707316077
H         0.13810122083146    2.83961481971472    2.59285907489259
H         1.09155961173826    2.06062542538590    1.32430235818546
H         1.68158916011104    2.07468542972089    2.98264819307919
Br        3.30218640721423   -6.66471476991725    0.18319508104438
C         1.89988514730645   -5.35147412410359    0.20344371375825
C         2.18063760688601   -4.04438588581847   -0.16772276605410
C         1.17543707522151   -3.09754210449997   -0.13947109642687
C        -0.11711069633206   -3.45587675592581    0.24206794801507
N        -1.13625207512852   -2.49377197656268    0.27756509163459
C        -2.29574488852659   -2.76836959257925   -0.21547480952497
C        -3.35059163849675   -1.80305413015908   -0.09521942469886
C        -4.65541231594821   -2.15108387946305   -0.39953963682684
C        -5.65763524986382   -1.22150025742558   -0.13136906654850
C        -5.30134511593784    0.02788354343052    0.29752902559369
C        -3.93085289748514    0.39106539301594    0.44043311942773
N        -3.59861409445452    1.67321227835620    0.66110795576184
C        -4.63432297470930    2.67001829910523    0.92312756311987
C        -4.01105358858401    4.00760276086411    1.30398226403526
C        -3.19886930092388    4.57785759086248    0.13767394060044
C        -2.54657038523133    3.43565952609281   -0.65026922781700
C        -2.31808459429792    2.22283304633981    0.24926477896353
N        -2.98066411368515   -0.57588001579099    0.36408385852130
C        -0.38431661845955   -4.77698268603723    0.61017840897522
C         0.62274618220924   -5.72245425659366    0.59766445599666
H         3.17689256930913   -3.76965585058190   -0.47551704716272
H         1.37512879358213   -2.08097325075598   -0.43820376696973
H        -2.48821910774833   -3.70784677029977   -0.72304756488424
H        -4.88046346835011   -3.12816204487368   -0.79058718394864
H        -6.69548805924408   -1.47463777812114   -0.27829392809546
H        -6.06821828586050    0.75701932602678    0.48573451021026
H        -5.26215327125468    2.32091294968224    1.74674072322049
H        -5.26254679163281    2.81612699265964    0.03661257565871
H        -4.80853578018637    4.69726568408765    1.58095072018492
H        -3.37744923715192    3.87564379456629    2.18015405348411
H        -2.43938787039379    5.25841203567491    0.52343522898657
H        -3.84523283901074    5.15557712949351   -0.52400183290531
H        -1.59012136056398    3.75165833731348   -1.06493826030867
H        -3.18104900633171    3.13818032885049   -1.48688552157630
H        -1.72836577792512    2.52089915944306    1.11581218710489
H        -1.77082533368608    1.46252425488701   -0.30304054664679
H        -1.37526806115750   -5.05773071880754    0.93233397492244
H         0.41972040377675   -6.73934657639284    0.89309519335416
Cl        0.07626672341931    0.04208408631715   -0.79894030763363
