78
 energy: -121.552982813587 gnorm: 0.000241421979 xtb: 6.4.1 (afa7bdf)
Ir       -0.74808368900190   -0.66513655346310    1.50535826779852
C        -2.22802329364366    1.08075841562213    4.05558109155546
C        -1.00296653591137    0.46225987473268    3.47615888259054
C        -0.58238975382230   -0.89243144592427    3.70801891617703
C         0.74502504595993   -1.04181675600210    3.16710771204674
C         1.67125117650313   -2.17400869989076    3.44341815421032
C         1.08815137323898    0.16372795334440    2.49865847732222
C        -0.00204682429038    1.10968726956863    2.69095716632733
C         0.09823767625532    2.55466992861552    2.43125731254175
C        -0.01959094770367    3.44610013277665    3.49753752685579
C         0.14635867213054    4.80135943465313    3.29754058379542
C         0.43466258726193    5.30913086208914    2.03158819667458
C         0.64303929033436    6.75112534188608    1.83177649202477
C         1.66723548006063    7.20822959576667    1.00464861279808
C         1.87755544071049    8.56352318660031    0.82837592543794
C         1.06410242905207    9.48425348773965    1.46879602635600
C         0.03998870017060    9.04085025969571    2.28975576568260
C        -0.16712575924727    7.68597852517301    2.47332137558411
C         0.53453515902059    4.41557675763897    0.96620037930867
C         0.36905408615102    3.05845590157946    1.16031519557483
C         2.43144036673985    0.49131865610924    1.94516015586627
C        -1.26237061709916   -1.85750775267322    4.61884523194849
H        -2.09133577132351    1.19059140467427    5.13182927090465
H        -3.10116083455117    0.45123112415818    3.89916882613990
H        -2.41405859871133    2.06009050832005    3.62489057024169
H         2.16781995834907   -1.98771483421535    4.39660256401215
H         2.43445833741509   -2.25335326615281    2.67490623821769
H         1.14202892039296   -3.12019202758686    3.51688099695761
H        -0.20717240319754    3.07155420971715    4.49181840159770
H         0.08043955851696    5.47479853960659    4.13875783853909
H         2.31706557708484    6.49719278493691    0.51539236506289
H         2.68088032346611    8.90434158537078    0.19125189683923
H         1.22846364063821   10.54266547986454    1.32907955692542
H        -0.59903543706411    9.75525024421341    2.78841103062345
H        -0.97621471288930    7.34977843462845    3.10515134303355
H         0.73154601064997    4.78968186323300   -0.02728511620650
H         0.42835199791278    2.38363328590302    0.31912447532342
H         2.80565046189636   -0.30992285687272    1.31193458190076
H         2.39886825712405    1.40868434245358    1.36504069807351
H         3.13287436532863    0.62407755602610    2.76965076524366
H        -2.34231742273836   -1.74823005807679    4.56934019031271
H        -0.99559192641982   -2.88214992825935    4.37450726072008
H        -0.94922943548921   -1.66210115287544    5.64517086999726
C         1.82329685415907   -7.81373666418055    2.01499567461425
O         0.80325934381795   -6.82981434709596    1.99467361319049
C         1.04697153265182   -5.64451221234623    1.40949220281115
C         2.25899810001598   -5.27480890614529    0.82697368632175
C         2.36740536698363   -4.01241477933559    0.26893042403660
F         3.54661979474608   -3.66300048454173   -0.28721291002281
C         1.34042309990745   -3.09239219548272    0.27084107765739
C         0.12773837921340   -3.47837865784953    0.84285058580808
N        -0.93633426157685   -2.56678463054265    0.84365832647514
C        -2.11543457576927   -2.94265023828023    0.46647589784940
C        -3.13632950873993   -1.93994394367378    0.43853359308145
C        -4.45478950867843   -2.20392776532358    0.01867242614418
C        -5.35278729804691   -1.17605013760330   -0.03597913547452
C        -4.92251839336421    0.13490723251728    0.26102776665795
C        -5.77884109676693    1.24844786693916    0.15398586964736
C        -5.31394685212323    2.51325196795794    0.39518925778890
C        -3.96816078667337    2.71302289901107    0.74260982019612
C        -3.11521224302326    1.65132586540976    0.88086437069669
C        -3.56658834790991    0.33590845376315    0.66193081531344
N        -2.72276602879981   -0.71631777456166    0.80400221476118
C        -0.01900881175605   -4.73845741027374    1.40618116830825
H         1.38498160194939   -8.67350587455789    2.51712137048155
H         2.69519134084164   -7.46824270613171    2.57590934940312
H         2.12115446794096   -8.09555423174900    1.00205971593950
H         3.11117694519763   -5.93235706920889    0.79470855412059
H         1.45296142868724   -2.12348902127076   -0.18717493250620
H        -2.31021397671951   -3.95065074019212    0.11907025675731
H        -4.72817325346159   -3.21274931434934   -0.24296485209348
H        -6.37835734440503   -1.34381960112865   -0.32661020365690
H        -6.80410718058330    1.08220924713171   -0.13873429503100
H        -5.97213894778990    3.36305027068536    0.30443948649124
H        -3.60222633061939    3.71586620401140    0.89712676898216
H        -2.07424914682614    1.81097093656572    1.11118231280263
H        -0.94369518872596   -5.03523316129806    1.87418121939434
Cl       -0.17056110300879   -0.01551269159247   -0.71804656987808
