67
 energy: -108.018958691838 gnorm: 0.000560265709 xtb: 6.4.1 (afa7bdf)
Ir       -0.85372865731648   -1.27778414226068    1.22639683320749
C        -2.17016353047704    1.10432352962459    3.30937087237376
C        -0.98863710331477    0.38764202313782    2.75239950425972
C        -0.37949536813454   -0.77108091409795    3.35560954474574
C        -0.82596494582261   -1.39219656903129    4.63524437539899
C         0.88651254318397   -0.99917063124454    2.69979449951008
C         1.98941846992539   -1.87419851928039    3.18921463486195
C         0.99635194574617   -0.06878343584602    1.63221735719259
C         2.19266809027354    0.15741823698333    0.77715123127956
C        -0.17896831555429    0.78686420531128    1.65008226546813
C        -0.32296081142399    2.01250412450205    0.81278694967421
H        -1.87072247795098    1.59018435035596    4.23872116118892
H        -2.98403469015069    0.42104312370569    3.54057740733474
H        -2.52944757528973    1.87203942012044    2.63095833094149
H        -1.90663296823668   -1.34843639122041    4.73459027816392
H        -0.50891361856030   -2.42837718602050    4.70610880942725
H        -0.38668574943830   -0.84461672593968    5.47003215880736
H         1.66063705633989   -2.50387496305456    4.00889538709500
H         2.38439413353875   -2.50399553626384    2.39511671424792
H         2.80013944540250   -1.24006452321837    3.54926660218344
H         1.90143361506877    0.29368644258531   -0.26219068711889
H         2.88381974006283   -0.67726423067996    0.84164361475079
H         2.70094808751041    1.06440770100131    1.10601544569827
H        -1.32687610510654    2.42276485321180    0.86722070027553
H        -0.09377339283228    1.78848148720729   -0.22670459306942
H         0.37995345353698    2.77120109057033    1.15765775668303
C        -8.31007397088073   -3.75456065595506   -1.61024089958639
O        -7.01754610264175   -3.45084278574655   -1.08483702524651
C        -6.76640832551326   -2.17896590576989   -0.80416521830608
O        -7.55076271449933   -1.27305507958714   -0.96018253622967
C        -5.38658784621998   -1.98248539129276   -0.26049932467555
C        -4.97437700094985   -0.69173302523662    0.08685962217327
C        -3.69954023083548   -0.49952969141117    0.57792445470670
N        -2.83432603161502   -1.50034953032054    0.74456771219374
C        -3.21825630170664   -2.75402809586354    0.39567332733295
C        -2.17671190248517   -3.73197951736162    0.51398104727502
N        -1.02782691851514   -3.30933863750875    0.93165578316318
C         0.08950224446502   -4.15609267926775    0.85838290840140
C         0.73406294049013   -4.57380968208074    2.02297532374741
C         1.85429628695855   -5.36835625235141    1.95983726402558
C         2.39565539604350   -5.73998777362542    0.72118896797653
O         3.50670085652989   -6.49636414268032    0.76389097440362
C         4.11343727886131   -6.90813771268418   -0.44797689664251
C         1.76137371667174   -5.31542230736115   -0.44493336019589
C         0.60259858477797   -4.55019020063094   -0.38536869913835
C        -0.06054619165948   -4.15849525406953   -1.66446906263342
O        -1.25958909453813   -4.16980021717460   -1.84642625868471
O         0.83010578476878   -3.86111904728496   -2.60060465246946
C         0.32076210987384   -3.45244881540615   -3.86713750094272
C        -4.49099533642324   -3.02842523034008   -0.10304383056214
H        -9.08398776139058   -3.43780212867719   -0.90946235210972
H        -8.33014355892589   -4.83150027187673   -1.74864881233457
H        -8.46092481904341   -3.23889329415950   -2.55983023356739
H        -5.65615067911996    0.13476866534905   -0.03617211096491
H        -3.35646805010984    0.48890418627138    0.84204356648991
H        -2.34766073645897   -4.76432551760387    0.23821266211714
H         0.31652520023932   -4.29323008941352    2.97568437724565
H         2.34271943230135   -5.71587863042072    2.85549912750836
H         4.98669040547076   -7.48565449332907   -0.15206387353705
H         3.44006882637887   -7.53968562021531   -1.03308694812395
H         4.42861806417491   -6.04860966094468   -1.04498508194461
H         2.14307371573844   -5.58263673746071   -1.41600454612080
H         1.18400997320199   -3.34242883176312   -4.51702422992445
H        -0.37206371555470   -4.20044154214413   -4.25674867282990
H        -0.20444361810915   -2.50126462652838   -3.76061969891678
H        -4.75595520044034   -4.03623894904546   -0.37612984902349
Cl       -0.47998797995265   -1.14682964767476   -1.12129159863453
