58
 energy: -97.631128964178 gnorm: 0.000528921195 xtb: 6.4.1 (afa7bdf)
Ir       -0.17104814546420   -0.80430061779952    1.61504323589927
C        -1.85215582331080    0.92052418171893    4.02977187613951
C        -0.56594277419816    0.37318331932953    3.51779037901433
C        -0.02533206988764   -0.91385771565688    3.84314152671617
C        -0.62991050380727   -1.88271639934555    4.79979082385942
C         1.31931307608024   -0.97831414608225    3.32129611399684
C         2.32127349501894   -2.02034746242715    3.68078002070283
C         1.56829520219767    0.21449033078433    2.59344672889922
C         2.87576536236114    0.64813803954777    2.03115095045369
C         0.38033601553487    1.05255526906327    2.69068017500982
C         0.32514735039568    2.47545040078654    2.31011261166811
C         0.15987794689261    3.43490412098693    3.30772764464140
C         0.14938365811379    4.77171096201772    2.95752739499470
F        -0.00560762248687    5.69370283516881    3.93007814640354
C         0.29124354394487    5.20182172058522    1.65027183418499
C         0.44859041982090    4.22406530692017    0.68361993414153
F         0.58519813837167    4.60521308277553   -0.60274914229005
C         0.46814160408206    2.87525835681665    0.98436001038549
H        -2.12078581336551    1.83965051404899    3.51674564647279
H        -1.74141925061258    1.13950085579369    5.09224887273294
H        -2.66024269436761    0.19972182976056    3.92871484099561
H        -0.28447884962926   -2.89410162592510    4.60523435443964
H        -0.33162853370176   -1.61411833575887    5.81395307885742
H        -1.71479343053972   -1.85902332978211    4.75049260469405
H         2.73780328585518   -1.77656225640918    4.65878025003495
H         1.86784623408423   -3.00594730807339    3.74495361544739
H         3.13591715247384   -2.05266544235520    2.96429757241877
H         3.44288554692883   -0.19831476355211    1.65353561207280
H         2.73694354651393    1.36604917110657    1.22797500006715
H         3.45963010753983    1.12513857887216    2.81929587286701
H         0.06301138582800    3.15639155436171    4.34423670534331
H         0.28159989443652    6.24885293000351    1.39754998749246
H         0.57523895300250    2.14951576825872    0.19306272837605
Br        4.18992106704875   -6.76778264781834    1.30941341716288
C         2.75963757216677   -5.49102870604697    1.21497777067104
C         3.02099299838540   -4.20386480046491    0.76531816123835
C         1.99248944209400   -3.28520341682434    0.70084279986772
C         0.69748920055536   -3.65676472674171    1.06351511406337
N        -0.33732147026630   -2.71788016837007    0.95553984274554
C        -1.44843893278434   -3.04117684497477    0.37267140298066
C        -2.43872116163028   -2.01059784165958    0.26221768059293
C        -3.66228816467188   -2.14817864927778   -0.39359793814383
C        -4.50408773264262   -1.05414967739567   -0.47705419606164
C        -4.09482444985115    0.14982034778542    0.08622186342200
C        -2.86665465854651    0.21691964946590    0.72216949471780
N        -2.06004760339305   -0.83515287409642    0.82404739676121
C         0.44775611732669   -4.95339175159979    1.51555059075031
C         1.48035871615491   -5.86737658141963    1.59965330260406
H         4.01912905188541   -3.92752423450934    0.46616669011054
H         2.16836256186425   -2.28752190393529    0.32865071503965
H        -1.60308188704086   -4.02173763701420   -0.06208322231450
H        -3.92767383923903   -3.09708956518722   -0.83111960504328
H        -5.45656657931569   -1.13087213689486   -0.97732207457109
H        -4.71707064183053    1.02819750275793    0.03537884016043
H        -2.51663857637448    1.14083853668141    1.15813507092659
H        -0.54617874718069   -5.23545387343400    1.82605618073600
H         1.29463815027064   -6.86782297082653    1.95593269836618
Cl        0.49806115889281   -0.27480175378160   -0.61714900395742
