74
 energy: -124.542834722015 gnorm: 0.000527724568 xtb: 6.4.1 (afa7bdf)
Ir       -0.34132824560466   -1.02083988789094    1.45580349018173
C        -1.74725349943600    0.87329666112248    3.95732169322658
C        -0.54079260932544    0.21990930835402    3.37992833491938
C        -0.12359875603624   -1.12490185768785    3.67371491017809
C        -0.79048132487360   -2.03465049630905    4.64879438378810
C         1.18778743987644   -1.31406386050556    3.11388244569551
C         2.11747701219847   -2.42987461146952    3.43961378554858
C         1.51747545344249   -0.15350620548254    2.35956910422593
C         2.85195638669165    0.13082209453167    1.76222438658269
C         0.44036088091385    0.81136051310811    2.53439609670121
C         0.53681193747010    2.23417637717779    2.17071348465771
C         0.43510169951982    3.19889805570975    3.17215382852304
C         0.58010818107792    4.53151173356437    2.83761829786191
F         0.48699263221287    5.45760201546678    3.81481945763990
C         0.81892072799191    4.95428402384474    1.54213922796938
C         0.91022210481022    3.97274198933392    0.57053821368604
F         1.13869195582769    4.34894290744296   -0.70445431258023
C         0.77577969413133    2.62730260560837    0.85485996839052
H        -1.94861633568644    1.82822105327164    3.48128799811516
H        -1.58058969037018    1.03929676658507    5.02229071356455
H        -2.62490585364181    0.23804473699075    3.86035964518208
H        -0.52696567847784   -3.07086188566009    4.45668161847137
H        -0.46191327318886   -1.78342062901336    5.65777313157066
H        -1.87094321181337   -1.92716501780084    4.60931538452001
H         2.62059127097169   -2.19227931302321    4.37792373225074
H         1.59039915048519   -3.37105499637524    3.56890635761716
H         2.87272785296196   -2.55114278718353    2.66941906818388
H         3.19295982115543   -0.70169759299800    1.15161030158313
H         2.82349252352438    1.02572676485211    1.14829654567081
H         3.57594881244141    0.27975605833207    2.56385368312892
H         0.27353914746346    2.92429890644704    4.20137513812607
H         0.93038151999351    5.99814844468708    1.30109280565338
H         0.83057512110619    1.90112132019857    0.05771045191689
C         5.92068442177877   -8.36986287556269    1.04881180898624
O         4.66007825327200   -8.65033108824514    1.62542397202329
C         3.68574876354319   -7.71985531855919    1.55442042420392
C         2.45932472902280   -8.09186528466120    2.16348621829288
C         1.39562779654826   -7.24416147342096    2.16365432073394
C         1.48399816514524   -5.97132105926125    1.54934168498447
C         0.39869729330707   -5.08513878886806    1.52073722454005
C         0.52150943770756   -3.84028875910493    0.93132556032789
N        -0.54434893302978   -2.94224213887692    0.90493877248833
C        -1.74309718362815   -3.34783237174953    0.61240227182144
C        -2.76831053289826   -2.35577106793656    0.56050777056459
C        -4.10060342907231   -2.64243902013065    0.19748389571388
C        -5.00058350892171   -1.62100543046060    0.10629449642648
C        -4.56455551592147   -0.29235491477290    0.31679900950450
C        -5.43036974093571    0.80637754593108    0.17114147192235
C        -4.95724069045040    2.08357312736383    0.33503106862147
Cl       -6.01403122619967    3.43992295617156    0.14563371494401
C        -3.60280069300493    2.31141209230453    0.63646084609634
C        -2.74844561260164    1.25711805508939    0.80260312334505
C        -3.19934222948578   -0.07076208613926    0.66625302315890
N        -2.34853321747003   -1.11031732841293    0.83817559119170
C         1.74871489801943   -3.45501129311520    0.34359283431373
C         2.80393249258592   -4.31788750248577    0.33527279224026
C         2.71300143307067   -5.59376087109786    0.94030348083025
C         3.80091285203816   -6.48286598452977    0.95601836087099
H         5.83372080985403   -8.19375985141989   -0.02684620742907
H         6.39106315959698   -7.50742657872776    1.52889617375545
H         6.52623726583205   -9.25694973744199    1.22272944226947
H         2.40564222286957   -9.06635687978983    2.62175370461152
H         0.46730051578150   -7.53807441369627    2.62886403314961
H        -0.52469677607262   -5.37191310610332    2.00190939578482
H        -1.94483857469039   -4.37784552822054    0.34478007547412
H        -4.38134523373182   -3.66452885969730    0.00369763366547
H        -6.03360551243579   -1.80423029008269   -0.14473987053502
H        -6.46337549464375    0.63095430260609   -0.08309302337315
H        -3.24638838203342    3.32440550665056    0.72945766068546
H        -1.70245974826761    1.43389511033886    0.99348798574509
H         1.80651561115288   -2.48834014662864   -0.13282620667819
H         3.73163559552454   -4.03502941239726   -0.13861448184115
H         4.72046670609530   -6.17043584099933    0.48757326795783
Cl        0.12647996493216   -0.43579458908210   -0.80603869414183
