83
 energy: -118.375227118268 gnorm: 0.000352323918 xtb: 6.4.1 (afa7bdf)
Ir       -1.25815656859995   -0.70466025421099    1.23045411231515
C        -1.54782454626376    1.13364988581583    3.56248944678711
C        -0.30800046595546    0.62494533262912    2.85965974095219
C         0.03623293130697   -0.81571637267554    2.86222234628002
C        -0.64104858404292   -1.77553130557032    3.80644402833106
C         1.47277456852607   -0.89526253403294    2.60796167767663
C         2.25616647053639   -2.15567486666215    2.54683840743369
C         1.95533783347847    0.37555884734710    2.44144922457317
C         3.36772083144423    0.73792595979383    2.14210882178421
C         0.88411824700425    1.32748940126043    2.61227644080090
C         1.16662361427507    2.78832750882185    2.48953751477705
C         0.98980717239817    3.24864639584734    1.03039313401150
C         1.50891320185331    4.67364276345670    0.86878461809842
C         0.79033330607133    5.62501155800755    1.82254559375007
C         0.92754716419081    5.14655620854329    3.26627131241203
C         0.38355869729364    3.72652627635165    3.41130424361848
H        -2.37793941936417    0.42664929458105    3.48260618020057
H        -1.87354929965813    2.09052824042729    3.16969455389018
H        -1.33450061881823    1.26016812740909    4.62487263744063
H        -0.21872763472982   -2.77229143741765    3.71636997850548
H        -0.49355817288544   -1.43678695550822    4.83255332419933
H        -1.72163261629086   -1.83888203868983    3.64066066401054
H         1.60981713889406   -3.02698883035661    2.53880796867240
H         2.87716982895090   -2.17874215361050    1.65409870941997
H         2.91663067820378   -2.22234608081640    3.41153838129919
H         3.96220524684581   -0.15512916937867    1.98048026599991
H         3.42436705917955    1.36053959109245    1.25170960583797
H         3.80615395857375    1.29154488292478    2.97237991573917
H         2.22547087049208    2.91894365549496    2.73580820157576
H        -0.06675924058195    3.20859875864445    0.77034276383994
H         1.52096220769132    2.57288036057456    0.35981454243716
H         1.36400962069313    5.00206079388895   -0.16223904696471
H         2.58112340647510    4.69817710486829    1.07577392758633
H        -0.26844309231817    5.67590197579617    1.55723824520509
H         1.20295575620934    6.63115397070160    1.72408834663490
H         0.38394495088939    5.81950571225413    3.93297956444033
H         1.97972228875899    5.17080794617364    3.55920717615852
H        -0.67270734974849    3.73899628158141    3.14875765849026
H         0.47813770848545    3.39570493425514    4.44665993601959
C         2.82572256755905   -3.37355890441501   -1.69897668455182
O         2.62135470816107   -4.45590229100956   -0.80451906995802
C         1.50998451181082   -4.47162140526572   -0.04928971826763
C         1.36135146994463   -5.56391794561096    0.81761115082042
C         0.25837697554530   -5.66390429204199    1.63867234124015
C        -0.71491864158191   -4.68170796680411    1.59492922138089
F        -1.79319207525002   -4.77244928040440    2.41612876943616
C        -0.59289103392738   -3.58276702844813    0.74621793932579
N        -1.57350667120553   -2.58056327610943    0.67456307521335
C        -2.81570709634815   -2.89263701534978    0.50824506809567
C        -3.78720363430576   -1.86997940587310    0.23407960836671
C        -5.09794440337907   -2.22505085731619   -0.03942176030791
C        -5.98146912737597   -1.21826037180571   -0.42481877799711
C        -5.49822205598173    0.04906196364079   -0.59997288633643
C        -4.12806657158409    0.35140508817122   -0.34760157628230
N        -3.65586525062468    1.57422793408229   -0.63434134934322
C        -2.52256345820608    2.19525645085149    0.00961517498494
C        -3.02011059829867    3.36957001637712    0.86011836562214
C        -3.77275074477581    4.38044970538774   -0.00275717961833
C        -4.90707905547056    3.68087761993587   -0.74759306975569
C        -4.32862150771523    2.50046026525180   -1.52689437169296
N        -3.31383584984925   -0.59965492248357    0.15420155870829
C         0.52956442741107   -3.48380087818622   -0.07320189424891
H         3.78849341426599   -3.56504213860537   -2.16750571030766
H         2.04618949767630   -3.34301399879251   -2.46334211437709
H         2.85537236963232   -2.41941254850374   -1.16805895972882
H         2.12897961387479   -6.31945947335293    0.83254619382869
H         0.13741493544577   -6.49591711670397    2.31341722915901
H        -3.13342737237602   -3.92904317432413    0.45327008314445
H        -5.41781549131848   -3.24799904844322    0.06142146632967
H        -7.02466656950557   -1.43774464203218   -0.58893712989941
H        -6.17027158308520    0.83804030711738   -0.88842972364646
H        -1.82608939846676    2.54854135965481   -0.75663970129818
H        -1.99953388784465    1.45889112314603    0.63131973309285
H        -2.17205761385021    3.85824659792411    1.34062781223676
H        -3.68918345573630    2.99345579277799    1.63773765330128
H        -3.08629420677494    4.82760538497871   -0.72488965611830
H        -4.16853945608112    5.18202301513795    0.62245238468959
H        -5.65420434646303    3.32574716321574   -0.03460350513724
H        -5.39543644743712    4.37147804180419   -1.43528337223960
H        -3.56980691593042    2.87404554366202   -2.22336503263081
H        -5.08740735638300    1.99039503393325   -2.11643257529133
H         0.60536836651004   -2.62093312977288   -0.71347699364440
Cl        0.23821786988717   -0.11681406500265   -0.39088918056524
