54
 energy: -91.967522611312 gnorm: 0.000450839158 xtb: 6.4.1 (afa7bdf)
Ir       -0.76786714113902   -1.09530702050665    1.33981981763355
C        -2.18166795711842    1.06971885670972    3.74533927346318
C        -1.03462360056743    0.32307556847186    3.16788770886412
C        -0.66774535273257   -1.01537507534418    3.57575119349940
C        -1.38428376670716   -1.81570847819523    4.60776630415242
C         0.64838915812078   -1.28900961448509    3.07392771000331
C         1.52213084603335   -2.40581788339780    3.52278426321379
C         1.02745472499248   -0.19223661976465    2.23142971572046
C         2.36322728463738    0.04250975521574    1.62087521079171
C        -0.02160982347859    0.81420120742808    2.30504750510729
C         0.11750591370835    2.19099338164305    1.75450562869320
H        -1.98415209678577    1.22210760186757    4.80710695166952
H        -3.11086096793493    0.51099664707552    3.66290510037050
H        -2.30975642366800    2.03805826731166    3.27416036240257
H        -2.45432233636227   -1.63249820177848    4.57467044185338
H        -1.20077263146563   -2.87920696809594    4.48094069799790
H        -1.02280225545809   -1.52822187056976    5.59581387525804
H         0.95182749089399   -3.31032264979711    3.71596581637945
H         2.29919077917064   -2.62668588402106    2.79756012031765
H         2.00250919987649   -2.10503263749510    4.45493828990590
H         2.26045578073737    0.46850241690447    0.62555032549551
H         2.93980738160904   -0.87499739637542    1.55922207183935
H         2.90986786058485    0.75790795996000    2.23567962129903
H        -0.81288104464126    2.74526259469474    1.82477685309680
H         0.42193691191012    2.15581086348008    0.71089168304177
H         0.88897349751929    2.72195729081303    2.31187105622413
O         0.28999476250754   -7.64671413012161    2.69594302422096
C         1.31676223392583   -7.22495041149541    2.21302229711937
O         2.45887975314723   -7.89791998797219    2.22793202524263
C         1.42496580689595   -5.89824373537814    1.54464204946452
C         2.62164144972180   -5.45454794942104    0.98623548275269
C         2.67520354247613   -4.21162602716178    0.37522296162757
C         1.55264552315139   -3.40501129077380    0.32419023276521
C         0.34907352176903   -3.85393632512058    0.87238368657146
N        -0.78498229748059   -3.03448315067893    0.78168678920501
C        -1.89910547645087   -3.54390254234507    0.35592955444864
C        -2.99439126324114   -2.64909247234674    0.16565798664739
N        -2.75879012869274   -1.36173742980665    0.52465484438969
C        -3.66497624716235   -0.44500434671253    0.19348045018553
Br       -3.25902487463498    1.34929498068854    0.53731913578515
C        -4.87917303143593   -0.74538169646908   -0.40938659713813
C        -5.16790016919447   -2.06559901976387   -0.72444098145498
C        -4.20125082180382   -3.01252648207460   -0.44717033806526
F        -4.39275972025022   -4.29359084267368   -0.77338442271892
C         0.28608483401377   -5.10313866447429    1.48067890515025
H         2.37212517787239   -8.76091800393019    2.67085783851542
H         3.49602139907373   -6.08281999698652    1.03557202270209
H         3.59856484094919   -3.86966600826302   -0.06547641583210
H         1.57677622643067   -2.44246554512140   -0.16423058158845
H        -1.98567073120424   -4.58490497140213    0.06548453914302
H        -5.58144833093273    0.04346990809665   -0.62735786140141
H        -6.09847585499070   -2.34932609058396   -1.18926348467134
H        -0.62685555051304   -5.46186473660789    1.93186522835494
Cl       -0.27051600568988   -0.44317814285211   -0.90020196969869
