58
 energy: -80.990255725605 gnorm: 0.000505382237 xtb: 6.4.1 (afa7bdf)
Ir       -0.42573647041585   -0.69122103265964    1.18981790555625
C        -1.73824790235697    1.60655334547511    3.39910540416845
C        -0.60322039693161    0.76332458603131    2.92585435566563
C        -0.30733560823582   -0.56396043007835    3.41426952675715
C        -1.07176625836738   -1.27398621941762    4.48031933976613
C         1.00381708560056   -0.92334649404699    2.94480625910201
C         1.80856439416009   -2.07514779962968    3.44085292900045
C         1.45330832531285    0.10697677480117    2.06982087280382
C         2.81448117082429    0.25333033275138    1.47715716252949
C         0.45908999879097    1.16660175606798    2.07932993845329
C         0.66863846497111    2.50490419625899    1.45836776917832
H        -1.46048416255557    2.05944213912670    4.35188038922371
H        -2.63449486137075    1.01354809790037    3.56282766777056
H        -1.95757675993586    2.41007404051712    2.70103068492119
H        -2.13847148387298   -1.08894005920386    4.38928276458494
H        -0.89863485037284   -2.34552304097849    4.44346540446311
H        -0.74775475989578   -0.91121701997438    5.45648350207830
H         1.18185763425596   -2.93209974242254    3.67353516925940
H         2.57387364325172   -2.36404882665311    2.72577490541645
H         2.31075833070970   -1.77245620587647    4.36094071311927
H         2.75201355283422    0.64493584007362    0.46413826987468
H         3.34755619444332   -0.69254511630024    1.45595416541604
H         3.39175205114414    0.96060576999053    2.07349737953003
H        -0.23058491118573    3.11205004820649    1.50116532527854
H         0.96762869097103    2.40089482894514    0.41697192801024
H         1.46736013578256    3.02563873280877    1.98706268296017
C         4.05696099290092   -2.21480543846252   -2.22676890991199
C         4.06298107197506   -3.30578572411428   -1.48373147220874
C         2.95914456266575   -3.79394629278623   -0.59314833055652
C         1.71946018579488   -2.90587117271731   -0.57961962360042
C         0.65075889875772   -3.46880184295636    0.36644297079457
N        -0.48565071668782   -2.58359649144846    0.42904276233071
C        -1.57830570491911   -2.92760792308487   -0.15785740234209
C        -2.67405310228067   -1.99670066477245   -0.12389588714289
C        -3.89027259291420   -2.20371707974506   -0.75068169077127
C        -4.88070016161676   -1.21464042441795   -0.68547320624011
O        -6.03097834799997   -1.47175214935613   -1.29910648479765
C        -7.07294193359183   -0.50586947895722   -1.27122670639793
C        -4.56973454830200   -0.04123461856529    0.01866331801837
C        -3.33107076675020    0.08343615733152    0.61155932696074
N        -2.39868751317862   -0.86294043783699    0.56886848906680
H         3.22065908359029   -1.53886350727449   -2.26621641005419
H         4.90399246691082   -1.95012832817104   -2.83696973203449
H         4.93581497487596   -3.94793281738684   -1.48636908192998
H         2.68607662817791   -4.80239587615590   -0.91856335678121
H         3.35970496283620   -3.88990115940264    0.42078880027923
H         1.30205340412175   -2.83752027710675   -1.58443524229953
H         1.98479066609240   -1.89798842246545   -0.26197734804096
H         0.33779019432121   -4.45754856256833    0.01608055302189
H         1.07105395418085   -3.56579282211524    1.36865507781939
H        -1.68123214276568   -3.87552309729582   -0.67546721694634
H        -4.08265491410321   -3.10988599484203   -1.30035964478613
H        -6.76156838259440    0.42075173019506   -1.75800797709002
H        -7.39345205688537   -0.30393335317207   -0.24707360835726
H        -7.89377128858323   -0.95152213734533   -1.82828720489840
H        -5.27389197500851    0.76881721097966    0.10493904185578
H        -3.08003624405559    0.98708685461399    1.14487450765110
Cl       -0.06829190253494    0.06771463967331   -1.04927772549817
