69
 energy: -92.011024482320 gnorm: 0.000211648656 xtb: 6.4.1 (afa7bdf)
Ir       -0.75632595064703   -0.23846361686702    1.24556582347485
C        -2.27996133723766    1.49692858954329    3.81814321398619
C        -1.17525750715244    0.64300042931672    3.29975540448477
C        -1.19998449618993   -0.80344941047335    3.34518900213644
C        -2.31652857707384   -1.61494909190900    3.91228930704285
C         0.12352019816376   -1.27457253683860    3.06729780162674
C         0.62010226925236   -2.65906613321226    3.29847278726670
C         0.92032035452311   -0.14507310691057    2.70435765391929
C         2.39365386377017   -0.12251925910177    2.48112508296964
C         0.11835472953531    1.05002178538932    2.88798391265871
C         0.69861630458619    2.42587111706240    2.88426094781807
H        -2.30438675186558    1.40721065621933    4.90510223443535
H        -3.24406916218498    1.17192434605152    3.43598814742186
H        -2.13310806316184    2.54109003200134    3.56510481979973
H        -3.28093230424383   -1.18600870627569    3.65431469313674
H        -2.28271262560294   -2.63953846546608    3.55233919928524
H        -2.23492135134086   -1.63460548156386    4.99980308535878
H        -0.15988704457641   -3.39874539911102    3.13728517059629
H         1.47820750987045   -2.88629967185699    2.67166549520324
H         0.94001969483990   -2.73720165573501    4.33890891130058
H         2.64775621934299    0.55556235881716    1.66917938873457
H         2.78348081550021   -1.10956733228701    2.25006067315499
H         2.88749880614055    0.23681173343974    3.38505184715292
H        -0.03539009953541    3.17156647982528    3.17437829316620
H         1.09606015254590    2.67758196889561    1.90238639147856
H         1.52387917469582    2.46529008344911    3.59539595647831
C         4.18982308357062   -1.76343953894794   -1.31065895371557
C         3.81524098216394   -3.00292192478844   -1.05438430434305
C         2.44057297888288   -3.46570781756373   -0.67328944016383
C         1.40119234992478   -2.35271810425504   -0.58584643708430
C         0.04670465940192   -2.91112316395564   -0.14854882340028
N        -0.95013128104275   -1.88544621907908    0.04901285597864
C        -2.08758990557679   -2.01084344973401   -0.52619451008668
C        -3.12162789730827   -1.03703019795777   -0.28908697629954
C        -4.43464300753546   -1.31091628141506   -0.62532819589645
C        -5.41227011269479   -0.40452305545471   -0.21908694887445
C        -5.02228995812525    0.77376469391478    0.35634627996881
C        -3.64182879924860    1.08697556733897    0.51316772713477
N        -3.26863142308359    2.33143418058013    0.85114021105624
C        -1.98081519257056    2.87825070611225    0.46348250601660
C        -2.19233401557558    4.14691348600040   -0.36025727350833
C        -2.81855063192956    5.25181888000595    0.49940552155552
C        -3.60771007139103    4.62895548197874    1.65444485798320
C        -4.27087423531733    3.32875437627187    1.21567884630479
N        -2.72016000722238    0.10799709861864    0.32146738596860
H         3.51233406273133   -0.92836699860904   -1.27282559416166
H         5.20716642183127   -1.53189309633286   -1.57822975300582
H         4.54372095422345   -3.80312583571615   -1.11253282598525
H         2.51303734847697   -3.98408289737837    0.28864104316363
H         2.12124625768311   -4.21273492803955   -1.40672321149753
H         1.29464136145359   -1.87052389938631   -1.55738870675628
H         1.72841760644282   -1.59718117393103    0.12632775015452
H        -0.30842744938592   -3.63363268286084   -0.89171968457315
H         0.17267883797193   -3.43470051401217    0.80320639336110
H        -2.30947423200729   -2.85609613168937   -1.17190454918490
H        -4.68784876651502   -2.22277672742769   -1.13766273328057
H        -6.45768580274453   -0.61831442689366   -0.37480669851010
H        -5.76827509378248    1.48835339906596    0.65283929323072
H        -1.37997852292914    3.11222094827804    1.34141525113133
H        -1.45009297936972    2.14204632621649   -0.13512579435463
H        -1.23273345553305    4.46896984984740   -0.76258050889884
H        -2.83786654506645    3.91094866382918   -1.20805870002020
H        -3.47716626684488    5.86577131202011   -0.11591887799085
H        -2.04579333671865    5.90788024654315    0.90129298212079
H        -4.38098038777942    5.31690397297021    1.99665155721830
H        -2.94960470156989    4.43644737052001    2.50146184707721
H        -4.87554266991071    2.93846724945467    2.03857826037489
H        -4.92767409133809    3.54416898521087    0.36455003103353
Cl        0.38790011338455    0.74499655825738   -0.62156034331468
