65
 energy: -94.198048801365 gnorm: 0.000823934905 xtb: 6.4.1 (afa7bdf)
Ir        0.05404009702845   -0.56831416841380    2.09701535630121
C        -2.63334639861530    1.02115787893215    3.55625579664451
C        -1.27121883930779    0.42441598788205    3.66547932774364
C        -0.97322742480304   -0.89345188021293    4.12413990120534
C        -1.96959047684204   -1.91703688055466    4.53357890154012
C         0.45433838741825   -0.98473073889346    4.38517101936235
C         1.10883642149729   -2.12654620494207    5.08429027060926
C         1.04290613623385    0.23144630390818    4.00573529145219
C         2.45132427311915    0.66511935407503    4.19772017965380
C        -0.01639706976013    1.09966920858855    3.47748568334819
C         0.17076043431148    2.55213204891451    3.19892686488488
H        -2.97620631213122    1.29963129019537    4.55312074225000
H        -3.34559803886947    0.31435770302195    3.13856931689437
H        -2.62440164808039    1.91349710899477    2.93709458926498
H        -2.92749661467580   -1.75059265676292    4.05078965363940
H        -1.62054749150431   -2.92256806460354    4.31147763841408
H        -2.11729054115556   -1.84960754177077    5.61266394391736
H         0.64529069317486   -3.07303513626616    4.81828427205127
H         2.17029032877730   -2.17565990086756    4.85813980372482
H         0.99896745514058   -1.99423627116332    6.16137063020475
H         2.85485636753958    1.08360664701668    3.27759701793604
H         3.08176293550581   -0.16075283452887    4.51220901761849
H         2.48846605591151    1.44350573180449    4.96007290263197
H        -0.63957118802898    2.94775266064226    2.59276777651327
H         1.11403307596734    2.72988203185266    2.68881687697602
H         0.18938562949115    3.09578840251024    4.14425042664739
C        -4.33096487589457   -2.55664338466802    1.22656874186810
S        -4.84038479155906   -1.26969409855090    0.03674745255731
C        -3.42855006573582   -0.25344957815679    0.00484558257602
N        -2.36227704666212   -0.57208197997784    0.72686001474161
C        -1.29273903278608    0.18454076236913    0.74777846000142
C         1.04334092176994   -2.22151979080608    1.52272323313259
N        -0.02586139128581   -2.48273296097205    0.99955886831629
C        -0.74244071800328   -3.44015835582015    0.22950421192912
C        -1.19588358643939   -4.62405954310921    1.09365663383829
C        -0.03122877497078   -5.38723511126079    1.73319819310817
C        -0.54323376712155   -6.61456787148479    2.44150978880827
C        -1.22710478831702   -6.49862598776779    3.64547422985283
C        -1.73158803179417   -7.61685317596708    4.28436972953301
C        -1.55551852192558   -8.87216842782046    3.72530844363941
C        -0.87175955871481   -8.99953043525479    2.52841909136395
C        -0.37203849772667   -7.87693226488189    1.89000494362823
C        -1.18821101609356    1.35801113579300    0.01675358302509
C        -2.28014383579012    1.71903178293001   -0.76099817284284
C        -3.42308472547939    0.92352702087825   -0.77509460006376
C        -4.54939056736924    1.29469011235458   -1.53867388087275
N        -5.46276445295876    1.61317607032977   -2.15605990155705
H        -4.23627482040364   -3.49699103248960    0.69431630657738
H        -3.38516071841987   -2.24444845119846    1.65490985329101
H        -5.10890171844514   -2.63190535827477    1.97874432473168
H         2.01991793414358   -2.66576188530688    1.63783124869992
H        -0.08713285058206   -3.78496482201436   -0.57687484120175
H        -1.61230338173502   -2.93961559540192   -0.19991692150645
H        -1.75107461826639   -5.30284277350285    0.44574853448135
H        -1.87460043767814   -4.27451257298296    1.87189561413179
H         0.48410226053179   -4.74454869062226    2.45063050785736
H         0.68148248399705   -5.68534799948868    0.96307213604662
H        -1.36489642644193   -5.52517950380104    4.09403585082173
H        -2.26206261746422   -7.51245712739775    5.21994376013186
H        -1.94759546921226   -9.74774540519931    4.22136947771533
H        -0.72714745927567   -9.97632383985783    2.09074782949226
H         0.15922987367187   -7.98808968701935    0.95554710134080
H        -0.30067793140025    1.96662138360290    0.03211987935589
H        -2.25440306595632    2.62212374254605   -1.35250654298440
Cl        1.76098284027600    0.09364262094938    0.52859203295658
