75
 energy: -127.150642476739 gnorm: 0.000607124048 xtb: 6.4.1 (afa7bdf)
Ir       -0.38501706747905   -0.88731566021564    1.49126047492964
C        -1.83854122519460    0.84698071160490    4.03442384611150
C        -0.61866291998183    0.22165138935027    3.45358263671148
C        -0.17816843205629   -1.12166174382998    3.69794266969585
C         1.13679840839469   -1.27032847017200    3.12236877089922
C         2.05424352629288   -2.41331341281238    3.38589374862913
C         1.45893793108456   -0.06549473798851    2.43848446833617
C         0.35762181701058    0.86968924713455    2.63557011304175
C         0.43396818622483    2.31429755411877    2.36183230562473
C         0.38192197243301    3.20619502621639    3.43289013349954
C         0.52351497966727    4.56277615536098    3.22015968975159
C         0.71853623171746    5.06989192202594    1.93620102838453
C         0.89244971045611    6.51338422306299    1.71515555091663
C         1.83683173371164    6.97900541222780    0.80191226837597
C         2.01334866691459    8.33558609839017    0.60104556337349
C         1.24533597110854    9.24992777046277    1.30372181113793
C         0.29997755148178    8.79839442849230    2.21034813004196
C         0.12652703369248    7.44216147293766    2.41736540884213
C         0.75514039439580    4.17366507529977    0.86864135405141
C         0.61505378378852    2.81590041689270    1.07589660192020
C         2.77242481142980    0.30193119456182    1.84360701297252
C        -0.82943471258492   -2.08223021112429    4.63180633346252
H        -1.69683290186807    0.96320711152992    5.10916855412479
H        -2.71564102860007    0.22026287825447    3.88772852417000
H        -2.00958506218695    1.82944328284626    3.60303263444255
H         2.54205399940455   -2.24958745620162    4.34777317008165
H         2.82407280968840   -2.49143139012657    2.62438816333977
H         1.51570845225934   -3.35594362411622    3.43806962015639
H         0.26406390126631    2.83228479608905    4.43831410504851
H         0.51014043811411    5.23718631570776    4.06307875643929
H         2.45265772472802    6.27452889933916    0.26201752732230
H         2.75454561916566    8.68236953389047   -0.10466743312753
H         1.38332603976196   10.30941777492634    1.14503543468020
H        -0.30398921109348    9.50789922022403    2.75750850666651
H        -0.62349160177306    7.10074673944698    3.11576601840531
H         0.88068801209417    4.54729337579350   -0.13642798920243
H         0.62450833976764    2.13801082352471    0.23643743359821
H         3.37292888580765   -0.57786000224585    1.63280374172340
H         2.63786011418144    0.86953343576997    0.92650706616786
H         3.31245331339543    0.93357086428409    2.54970452723427
H        -1.91006740682755   -1.97219964546302    4.61893208507186
H        -0.57153817259846   -3.10810908148094    4.38484202400141
H        -0.48085954663401   -1.88295124270993    5.64596870700930
C        -4.87817111102087    2.48631842055405    0.76533095300043
O        -5.23350041201055    1.24559316015694    0.17032572415468
C        -4.39230359146606    0.22530868021945    0.19559797354269
C        -3.13057770799390    0.21815843537422    0.79958410467646
N        -2.33308793407236   -0.84514008990311    0.79025214998147
C        -2.73051582586950   -1.97464181766977    0.15809730158974
C        -1.75402060279972   -3.01744794529628    0.14356284213757
N        -0.61445228143949   -2.76293599437746    0.70333222326842
C         0.40136138189038   -3.72778439266583    0.70232294970606
C         0.14782882848402   -5.02594119375426    1.14488625057904
C         1.16259405051203   -5.96465510758640    1.14921485645871
C         2.42903008198110   -5.60870523522059    0.70118323777286
C         3.53422160057216   -6.62633900630907    0.66828156210129
F         4.72698062897495   -6.10401909251385    1.00557108933240
F         3.32479267930210   -7.66023826422965    1.49824021764041
F         3.69801958852006   -7.16013233396058   -0.56121188212445
C         2.68516912969451   -4.31817073488218    0.24758104369563
C         1.67616983864365   -3.37558939387114    0.25970724184587
C        -3.98313295140855   -2.06332726642105   -0.45939112197200
C        -4.81424557255550   -0.96963445838198   -0.43476981473562
Br       -6.53519473489161   -1.00642084155778   -1.23722249153101
H        -3.97770381439224    2.89654404560241    0.30505643079073
H        -5.72168251602084    3.14561790443013    0.57196685763152
H        -4.74041856646059    2.37463405959544    1.84234056138586
H        -2.75088909851025    1.09943213515364    1.29384273401844
H        -1.94591111672154   -3.95536503334236   -0.36475429245384
H        -0.83484452172001   -5.29183309981035    1.50218391607127
H         0.97430777735134   -6.96842038193253    1.49844481800152
H         3.67089343155016   -4.05886839478598   -0.10644491111358
H         1.85113623893452   -2.37347118096204   -0.10095528061884
H        -4.28236909707121   -2.97448290089256   -0.95157060777067
Cl        0.16632312942900   -0.24137815195180   -0.74107873513152
