68
 energy: -114.744158063478 gnorm: 0.000472676828 xtb: 6.4.1 (afa7bdf)
Ir       -0.15138297264966   -1.20467846292374    1.30815880819202
C        -1.79372391375632    0.29151248716268    3.85087288749104
C        -0.49662707607717   -0.09687025590919    3.22908823640466
C         0.23423340281848   -1.28534188457744    3.54315907671025
C        -0.15798967064803   -2.25410142184973    4.60530965155299
C         1.49393102997977   -1.23279468366310    2.84522342037633
C         2.64716447899103   -2.16125261562344    3.03307851741939
C         1.56173537193872    0.01088173650141    2.14519023562408
C         2.76568573342660    0.55750983716242    1.46648323975990
C         0.30825730637093    0.69687057791082    2.33419550568469
C         0.04589952129112    2.07766762581512    1.90427487966142
C        -0.34062713613926    3.04127752264838    2.83425053417122
C        -0.53781203777036    4.34198629550132    2.40994286163349
F        -0.90495248593976    5.26906245657563    3.31783586307162
C        -0.37230561309474    4.73132904364343    1.09261606953257
C         0.01057843286575    3.75116562059751    0.19292048745828
F         0.17710026344491    4.09376431180627   -1.10031668438971
C         0.22341726242575    2.43874853746497    0.56842489270419
H        -2.27574131004078    1.09129480257656    3.29640262945546
H        -1.61186343223934    0.63645628800344    4.86948909612600
H        -2.46815045734958   -0.55936588744504    3.91050131787699
H         0.51939788748391   -3.10093039498769    4.63456342736312
H        -0.11134502285872   -1.74776875636831    5.57012192084203
H        -1.17778987021840   -2.60654455821639    4.46938077156967
H         3.24289044816966   -1.82922491569477    3.88412301208085
H         2.30920309955156   -3.17578483787750    3.22284452903966
H         3.27945855721321   -2.16795868708227    2.14937762868816
H         2.89855273253308    0.10168560949234    0.48527006942913
H         2.66912403027053    1.63146775106608    1.32801581548045
H         3.65248962911205    0.34483892252290    2.05971427817414
H        -0.45879297710862    2.80062843373194    3.87752368363284
H        -0.52986157115457    5.75063886151949    0.78234665019999
H         0.50721785072985    1.70443046944912   -0.17006822763576
C         1.82391018319798   -3.09302747497780   -3.65839578834982
O         1.96425803039716   -3.68291300215714   -2.36850086308338
C         0.85053043974105   -3.90312047287086   -1.68656634559064
O        -0.26427664069541   -3.69147476336977   -2.11581859425019
C         1.13334257678109   -4.51156044361186   -0.35236937062917
C         2.13720067884859   -5.45584454805822   -0.24119350082787
C         2.40327196608189   -6.09536749088176    0.97542963217030
O         3.38651761829332   -7.01144232357696    0.95541422055372
C         3.71097554884292   -7.70486888703000    2.14864728423833
C         1.64333812783342   -5.75309601021929    2.09594127746024
C         0.67015339448013   -4.77675580156648    1.99998681300273
C         0.39862512661660   -4.14760595927472    0.79077394349722
N        -0.56256899301462   -3.12433752091063    0.71794008028765
C        -1.63071901888144   -3.29610092502732    0.01082486668104
C        -2.46126372871574   -2.14295702103448   -0.19791382483499
C        -3.62333547912281   -2.14072825203118   -0.96820352679714
C        -4.30431354309873   -0.95081193578282   -1.14837302475793
C        -3.80057421399004    0.20296571894520   -0.55714144949150
C        -2.64082972588204    0.12712679234404    0.19436376289025
N        -1.98579904349994   -1.01522380501881    0.38304261550474
H         1.12534680097659   -3.67039318954876   -4.26634288946875
H         2.81689268358751   -3.09256044669562   -4.09852634080127
H         1.44833957660299   -2.07298524562443   -3.55591080579909
H         2.72078753225137   -5.73034222559046   -1.10439257804057
H         4.52660329780528   -8.37340231429725    1.88138373899890
H         4.04597438239411   -7.01554332830260    2.92737826908735
H         2.86213894803492   -8.29255569363603    2.50711143162108
H         1.80393698983884   -6.24172476632768    3.04303526361122
H         0.07699418630489   -4.52015180831658    2.86280213566892
H        -1.89072111530247   -4.25540658517016   -0.41714507152211
H        -3.95904121470839   -3.05948494332419   -1.42068533493737
H        -5.20413654349742   -0.91641153572613   -1.74187792645518
H        -4.29765450359571    1.15200948223171   -0.67538752838552
H        -2.22220707961830    1.01032546181553    0.65446960569032
Cl        0.76600426310709   -0.95382256428018   -0.86255726239441
