91
 energy: -137.336658296042 gnorm: 0.000338732972 xtb: 6.4.1 (afa7bdf)
Ir       -0.68594310572842   -0.59267068676770    1.51521133478539
C        -1.93391150242003    1.19702451367939    4.15659466490422
C        -0.76758878562958    0.53919391369145    3.50182861448841
C        -0.38160399197268   -0.83046986594010    3.70423029858862
C         0.90214532054190   -1.02694033156177    3.07943964902356
C         1.78811785175474   -2.20445811132720    3.30107610860680
C         1.23902278204609    0.16626098395043    2.38618225259586
C         0.19968385130054    1.15038072222479    2.65374229360916
C         0.32035329467653    2.59087891268575    2.37644214205237
C         0.29375047247905    3.49301381516011    3.43928753240179
C         0.44128340225161    4.84683328933840    3.21364150369861
C         0.61591896622531    5.34318242898947    1.92269077902437
C         0.77859701332458    6.78535899390997    1.68548564851892
C         1.69773741678017    7.24951654498185    0.74616657685046
C         1.85831167020757    8.60531130137690    0.52742633872814
C         1.09969398991814    9.52089668609841    1.23859880611493
C         0.18023049680679    9.07112996533820    2.17223603031607
C         0.02273464330842    7.71574821672950    2.39656232775535
C         0.63777428380065    4.43714611428125    0.86327292311121
C         0.49469204911206    3.08214466283076    1.08429467376522
C         2.53766225429469    0.47114817201505    1.72176602787781
C        -1.02777567952891   -1.76990981668470    4.66655200704788
H        -1.73090329562451    1.29791660270053    5.22326787361126
H        -2.83666763370964    0.59924212006829    4.04857436410947
H        -2.11281097490867    2.18373381818763    3.73946469392889
H         2.37498203180922   -2.03159145393566    4.20414315815024
H         2.47459966166681   -2.35180996937814    2.47231239984586
H         1.21273724720403   -3.11562105031177    3.43999860224073
H         0.18574001032715    3.12783795638011    4.44903134010526
H         0.44505955699237    5.52780219762009    4.05154843750788
H         2.30556472734871    6.54400979101002    0.19865003668728
H         2.57916861190669    8.95048049668329   -0.19984168415102
H         1.22480126969674   10.57977475253770    1.06562056541154
H        -0.41636883131843    9.78107253463342    2.72690746912873
H        -0.70691989408820    7.37503323438376    3.11661149117369
H         0.74955706823795    4.80013513717108   -0.14727916348790
H         0.49003513969828    2.39987316295675    0.24747246189445
H         3.11404342937928   -0.43425779460251    1.55734044285073
H         2.37912532292014    0.96738292745895    0.76747927281183
H         3.11521448398816    1.14451054801672    2.35574234317370
H        -2.09774508223143   -1.59220835502148    4.72806077161735
H        -0.85503390390855   -2.80448616220891    4.38215592506405
H        -0.60052478280949   -1.61735840944140    5.65846542025058
C        -7.70463075708773    5.42544377272610    0.49096688013894
C        -7.22851666914868    3.98195157160973    0.45776959810404
O        -5.82689661836856    3.98117571799867    0.70512364048449
C        -5.15547822644057    2.82401984568752    0.73103175095609
C        -3.76243735605707    2.93964972303476    0.97858982966877
C        -2.96480172438163    1.84003799044394    1.05668647778033
C        -3.49540371137437    0.54419183156298    0.87839105238457
N        -2.70127289755738   -0.54535352843189    0.96067047717408
C        -3.20196146972212   -1.75044267408295    0.63940529420956
C        -2.23521501342990   -2.79952166462502    0.59442416952228
N        -1.00651374333026   -2.48510361068050    0.86871790066687
C         0.00473821793091   -3.44166065902184    0.78914599537782
C        -0.20799674812915   -4.75998176383359    1.25692176487545
C         0.78531579220723   -5.68932378728687    1.16297233810152
C         2.03504018662582   -5.37090330380811    0.58344935755553
C         3.06001903020502   -6.32649669449485    0.46677077074471
C         4.26776954828735   -5.98883098382517   -0.10376142100356
O         5.31711096677384   -6.82319645830007   -0.27372305694521
C         5.19872080801066   -8.16721615892809    0.14900435493083
C         4.47716216239986   -4.66598435058628   -0.57068869121696
C         3.49868996273135   -3.72667644509123   -0.46596808131981
C         2.24749797669200   -4.04569964248535    0.11420455885425
C         1.22443033146291   -3.09554136872696    0.24177639877070
C        -4.56217043160648   -1.94051891902755    0.32055174002386
C        -5.40354956809704   -0.86669712316290    0.31999269803900
C        -4.88581182060691    0.42341940161881    0.57730342538473
C        -5.69496109947121    1.56901594437990    0.52848839020979
H        -7.19739052056286    6.00408185157540   -0.27603938600162
H        -8.77533223700808    5.46113279722298    0.31356746955959
H        -7.48887802591490    5.86770012420134    1.45952820890746
H        -7.43047942447537    3.53678314503196   -0.52428731501743
H        -7.73854521639073    3.39374974155640    1.23083029886685
H        -3.35557209297782    3.93070222004092    1.09679566040514
H        -1.90376714548133    1.95080172606242    1.20721977044501
H        -2.51009801795373   -3.79432258519777    0.26482348772368
H        -1.15054761720069   -5.01023119610000    1.71950989070700
H         0.62632973929489   -6.69028072824632    1.53505021463623
H         2.86899657607132   -7.32428936018620    0.82848370839577
H         6.15093172986316   -8.63478674885887   -0.09339308979103
H         5.02584380410569   -8.22911455657936    1.22696918383176
H         4.39448656118325   -8.68059940007570   -0.38529433530272
H         5.43469712055652   -4.44003638016032   -1.01214775840086
H         3.66261675206945   -2.72349630542770   -0.82926226999851
H         1.37305109243730   -2.09323207615041   -0.13232010000738
H        -4.90999479869006   -2.93335955221894    0.08746803878663
H        -6.45383944405082   -0.98159443618443    0.10141387970333
H        -6.74199810939256    1.43614190073611    0.30920798671140
Cl       -0.23543871017792    0.04307664643481   -0.74300591340242
