66
 energy: -115.385102700922 gnorm: 0.000658653875 xtb: 6.4.1 (afa7bdf)
Ir       -0.32805594620049   -0.84695397167367    1.40060724214661
C        -1.90899215771618    0.33042988853782    4.12223464219269
C        -0.62174132272689    0.08930691331279    3.41468430670121
C         0.21085220357473   -1.05916907390425    3.57166252567717
C        -0.02740654264880   -2.19534634674426    4.50267818129918
C         1.41674294287725   -0.84626134343114    2.80825548732967
C         2.65189133258861   -1.67564027827522    2.89996643219773
C         1.34114919509739    0.44945110097405    2.20556751925694
C         2.44806062752648    1.13590511197238    1.49052471428409
C         0.05440886150507    1.01015270211087    2.52979707423292
C        -0.33911029656231    2.39708656711644    2.24115259784804
C        -0.71775827882202    3.24613402619335    3.27934164952531
C        -1.02931555437084    4.56148217615053    2.98970945589975
F        -1.38710152579841    5.37701014575983    4.00101928118592
C        -0.98429804348457    5.07475819640627    1.70538757237918
C        -0.60831079291743    4.20518003426258    0.69604491700262
F        -0.55594460053797    4.66702114216077   -0.56853587836608
C        -0.28610726967732    2.88267114327757    0.93488848176268
H        -2.46701621016649    1.14014509382838    3.66071135832113
H        -1.70165087146423    0.59960873436924    5.15865403715455
H        -2.52536546342277   -0.56552392078171    4.13512278331791
H         0.34348259600453   -3.12932659331622    4.08751550652268
H         0.50891122037955   -2.00667510169731    5.43315853921961
H        -1.08248700543934   -2.30097256681108    4.73510802667671
H         3.24201369475181   -1.32785690401522    3.74889704015975
H         2.41293176886708   -2.72266514682922    3.06033519860881
H         3.25430586446440   -1.57933200658907    2.00227084519302
H         2.52852049642666    0.77874696416255    0.46413034002818
H         2.27417117133581    2.20829091221674    1.45951238856809
H         3.39144785107999    0.93426832240746    1.99255544113817
H        -0.74254929755571    2.90920605748114    4.30213201218962
H        -1.22743035720374    6.10402847164708    1.50092427005706
H        -0.00944993388485    2.23972818956625    0.11359605610665
C         4.61066200682231   -6.70336167663268    0.91820583666892
C         3.21015494668160   -6.85464429660859    1.40106749970621
C         2.78226807831467   -7.98804750497955    2.00536559328250
C         1.42934344411410   -8.16790434662853    2.48403009191584
O         1.00136837026793   -9.16137628647163    3.02835629417862
O         0.56442906244774   -7.12076038824882    2.30574359402202
C         0.95181564589726   -5.97575426080952    1.70254535326395
C        -0.01666587612583   -4.98393803754134    1.56312531615809
C         0.31871592148927   -3.77822656066361    0.96266909351354
N        -0.63871007270277   -2.76575832028356    0.81187852594401
C        -1.78508647515556   -3.03510172310455    0.26959047655072
C        -2.71456253115750   -1.95435664520968    0.14123970086937
C        -3.96001422995692   -2.04555367207997   -0.48666442463610
C        -4.75559110622472   -0.92237645139262   -0.57612641286281
C        -4.27424459350480    0.27085299388608   -0.03689109882305
Br       -5.31286238380080    1.86280372563028   -0.11224298149021
C        -3.02597153732872    0.30060697920984    0.57241632791291
N        -2.27034358230864   -0.78416320378682    0.66654106389896
C         1.62027582354114   -3.56285331796328    0.49430264247446
C         2.56629719287728   -4.55193356910853    0.61837301675040
C         2.26046756106597   -5.77678479404632    1.22867528693115
H         5.18545736004047   -7.59844493654362    1.13634863428331
H         5.08900633633788   -5.85322521475736    1.40045667188202
H         4.62169473383936   -6.53450822162384   -0.15714966615479
H         3.43734300265330   -8.83001350956458    2.16334026199470
H        -1.00630083750962   -5.16574449374606    1.94961603616044
H        -2.01762906917060   -4.02386119286771   -0.10753592170586
H        -4.28432939416129   -2.98723058511628   -0.90045653557361
H        -5.72204298380334   -0.95746965555986   -1.05363926027153
H        -2.63559536928443    1.22119058916116    0.98175580970955
H         1.84944650448568   -2.62891936019254    0.00590727714637
H         3.56036036569997   -4.38413222773024    0.23977829407599
Cl        0.29937532977758   -0.38632447440605   -0.84033544351034
