68
 energy: -112.506265712836 gnorm: 0.000210089806 xtb: 6.4.1 (afa7bdf)
Ir       -0.50428335814605   -0.37336864470097    1.63490982534926
C        -1.95101026222295    1.39552195229659    4.26736450788296
C        -0.75815564848820    0.78460529106713    3.62671245473761
C        -0.32801943159083   -0.57049238625969    3.85398244840620
C         0.98143449840069   -0.72340125694097    3.28136583934460
C         1.91954382704563   -1.84087125590120    3.57218379504909
C         1.29840580245980    0.48670461287218    2.58307700865743
C         0.21450015916659    1.43110142082134    2.81052266380441
C         0.30534386416029    2.87300944443797    2.53580047205687
C         0.24224030114247    3.77012460609239    3.60115513176118
C         0.40246861384401    5.12384688396035    3.38451798723890
C         0.62710043685111    5.62222392972148    2.10251499928748
C         0.82677738947679    7.06170141535735    1.87878655238085
C         1.81153040395789    7.50841323025918    0.99960128860786
C         2.01442618369499    8.86127586625214    0.79832748209007
C         1.23234632264203    9.78978528448524    1.46598104914391
C         0.24648726420718    9.35659383470270    2.33780211600124
C         0.04709598603678    8.00409306177667    2.54631048089323
C         0.67340872269141    4.72150759975642    1.03966091397879
C         0.51629793147196    3.36715306439883    1.25131809158384
C         2.61576348389191    0.84107443826791    1.99187468930661
C        -0.98533254603259   -1.52295060533615    4.79251736291909
H        -1.79432144289566    1.40734900153246    5.34674986110311
H        -2.84951762316046    0.81173559826127    4.07822071011034
H        -2.10614584148582    2.41233254903816    3.92129490955008
H         2.43327508918218   -1.61469832194457    4.50785620516266
H         2.66837759889939   -1.94925768575279    2.79383345350033
H         1.39671760217375   -2.78513766170801    3.69472484959803
H         0.10360898725280    3.40324212180745    4.60624439549973
H         0.37970392656664    5.80318631598901    4.22315991964385
H         2.43626174359604    6.79117453171464    0.48733934047549
H         2.78680688757807    9.19409046115562    0.11990874743195
H         1.39043676743172   10.84644508927698    1.30684895860158
H        -0.36869195551442   10.07744941253767    2.85681453775673
H        -0.73338065619152    7.67454581382721    3.21639576384312
H         0.81909065617417    5.09011049502488    0.03548899939024
H         0.53050484317183    2.68762158133846    0.41349552901392
H         3.18920852104620   -0.04588941252039    1.74029238785845
H         2.49190411638576    1.45248598432517    1.10241704708472
H         3.17754732356803    1.42605916295513    2.72104018960630
H        -2.06621062744569   -1.41779423517533    4.76551757786584
H        -0.71975619457207   -2.55079572962315    4.56252083506778
H        -0.65113331732428   -1.30694235891742    5.80804563550574
F         3.60667979840555   -5.76222614525007    0.89008585345140
C         2.56556030352146   -4.91037982852528    0.91324720458452
C         1.36534010665129   -5.33197775627306    1.46332048573349
C         0.29433669911399   -4.45941945980553    1.47555353158840
C         0.43773375375108   -3.16907456713533    0.96098463711774
N        -0.64038666393423   -2.27367199694451    0.94601616587350
C        -1.78969835488348   -2.67593282006445    0.50192021653222
C        -2.83189810158070   -1.70446383032946    0.40085441119513
N        -2.51195197842110   -0.46236262861267    0.84347191074079
C        -3.37076063789734    0.52801093122420    0.61230624743358
Br       -2.85561021732008    2.27574269682142    1.07936930931148
C        -4.61643656188327    0.33774897406299    0.02496023467728
C        -4.98821500594164   -0.93488579344732   -0.38012031572171
C        -4.07136106782697   -1.95398135218885   -0.20211765040981
F        -4.34504808104552   -3.19374071293951   -0.61413764653678
C         1.66192199695268   -2.75875795520970    0.42942892097966
C         2.72790920881172   -3.63610722437114    0.39159013125459
H         1.28003705646008   -6.32828047336314    1.86616871573555
H        -0.64496735801516   -4.76680833237134    1.90857376708548
H        -1.94676244275604   -3.68314136261424    0.13256379589381
H        -5.27707798823600    1.17866820937978   -0.11108978096690
H        -5.94541545064275   -1.12937379188602   -0.83743694151043
H         1.74903230855518   -1.76619596191471    0.01448886754645
H         3.67518142567952   -3.34941688838687   -0.03583451129486
Cl       -0.00024109662812    0.30342256959169   -0.59939657445870
