74
 energy: -96.233210126293 gnorm: 0.000421822601 xtb: 6.4.1 (afa7bdf)
Ir       -0.18356002538182   -0.43125445673759    1.82723167452576
C        -2.30497015693312    1.67482183172087    3.57114607815513
C        -1.14008244689099    0.74379654485371    3.53336499832486
C        -1.26144616291771   -0.68260165236689    3.76188675746222
C        -2.54667129719079   -1.38516249168983    4.04563893608254
C         0.04742958330049   -1.20975362205717    3.96226300128516
C         0.36276654263853   -2.54986203619913    4.52857729821794
C         0.98505837162300   -0.16191706069479    3.68556053864312
C         2.45991060032576   -0.20618772387860    3.89621650017328
C         0.23688187204355    1.06502506998558    3.47774918851964
C         0.87209707807412    2.41421227376652    3.41547687104028
H        -2.90967630943141    1.44818849119864    4.44845766368116
H        -2.93950325197190    1.56260365682601    2.69360956002629
H        -1.97326998854772    2.70610614651477    3.63855160076483
H        -3.35263314897635   -0.97722479505498    3.44127416199936
H        -2.46398319298482   -2.45052701700054    3.84828183612613
H        -2.81030842214346   -1.25630391649357    5.09633233362836
H        -0.32925588786053   -3.31166260133327    4.17741887817960
H         1.38369694015115   -2.84968545126137    4.30871922511780
H         0.26322979102733   -2.48991477670138    5.61393059219392
H         2.96971011468075    0.39661474603981    3.14784867036056
H         2.84096074777771   -1.22245479257571    3.85029638886259
H         2.69690151952859    0.20459561972120    4.87855120785331
H         0.12852273816466    3.19865784109073    3.31721562369190
H         1.55886856478046    2.47761121237018    2.57282546699400
H         1.44527143505309    2.58448911178284    4.32660008700801
C         6.75513276183873   -2.22898752811053   -0.46604601090839
C         5.29965805932082   -2.67862596068412   -0.39608183032082
C         4.91036281049817   -3.10006718375188    1.01959447192399
C         3.49797387550173   -3.67797276027456    1.11878152065453
C         2.41391397415937   -2.64403569035667    0.81882402316587
C         1.02762955891514   -3.20629414813813    1.13783949547168
N        -0.02949796467910   -2.24470652045535    0.93728141452646
C        -1.05874295379100   -2.58223253894688    0.25314908751953
C        -2.11054488387751   -1.62946301135381    0.00535133115684
C        -3.30912270507444   -2.04112943394294   -0.54421713085439
C        -4.31395128286040   -1.08440362744853   -0.69357375446004
C        -3.99239586045831    0.22697304316289   -0.49171973477937
C        -2.66711902064277    0.61982193075812   -0.13012843084006
N        -2.33945182487912    1.91674931503674   -0.24827487469733
C        -2.95366694048935    2.75346113255579   -1.27345671828299
C        -3.35151407567490    4.11198399859093   -0.70655623537740
C        -2.09978043959635    4.81288686129698   -0.19037268774940
C        -1.42138232979002    3.90963851886904    0.83364036836093
C        -1.12542368841277    2.52516969485556    0.25335291741259
N        -1.81134311359099   -0.33576158034799    0.31198570970958
H         6.92605701709178   -1.38284698191223    0.19621391946697
H         7.01454452991295   -1.92765231152281   -1.47869979238463
H         7.42208851465347   -3.03615727962862   -0.16859802091636
H         4.66021700301021   -1.85890724676492   -0.72657752629417
H         5.15048438797315   -3.51886407580659   -1.07836753758179
H         4.99772005666171   -2.23765384096666    1.68399893744574
H         5.62002326730487   -3.85563815408558    1.36626603956126
H         3.35550345886220   -4.06564895730594    2.13072718410005
H         3.40555935732537   -4.51980630625704    0.42910081608240
H         2.58822516507069   -1.74705854461115    1.41178227017519
H         2.44845915646269   -2.35564929296375   -0.23094383106927
H         0.84259713661810   -4.09281886964361    0.52159144783947
H         1.00926647616440   -3.51128725391597    2.18720325829467
H        -1.15337169905556   -3.57410559332342   -0.17995684182586
H        -3.47236149256686   -3.07698660351195   -0.78587402606038
H        -5.31578026118801   -1.37253054697647   -0.96895016887483
H        -4.75327951805876    0.98417398343525   -0.57480058164207
H        -3.80387375892871    2.25758267746691   -1.73356484477849
H        -2.20100180915170    2.90897446535585   -2.05740030145056
H        -4.06732081502645    3.98106413378924    0.10684977917119
H        -3.82905037088884    4.70245545075155   -1.48875184099760
H        -1.42051426968556    5.00963756172404   -1.02241731485719
H        -2.35648548008225    5.77032739612071    0.26501338935765
H        -2.08122704317269    3.80934114274468    1.69531643642559
H        -0.48264595832025    4.35432086930820    1.16332865002669
H        -0.69057150869588    1.88499454706743    1.01817380515533
H        -0.39586690440179    2.61241454348725   -0.55895835577809
Cl        1.35964679776489    0.39590242480323    0.20389298085484
