74
 energy: -121.767956393570 gnorm: 0.000209344265 xtb: 6.4.1 (afa7bdf)
Ir        0.17367272471180   -0.65809539879121    1.56574066816721
C        -1.15014867601635    0.53724574623367    4.40220716072081
C         0.06873122295056    0.16573414990870    3.63086483204815
C         0.73893105101309   -1.09251039981104    3.69135343605680
C         1.93143285004142   -1.00412757699758    2.88434274113720
C         3.03806740807915   -2.00329565752971    2.84931650032696
C         2.03337461266119    0.33769920559594    2.38615904831387
C         0.85571931384333    1.04947696334208    2.79322338196754
C         0.62481984355523    2.48168506071442    2.56832604765179
C         0.33316725134367    3.33671433408191    3.63060284675834
C         0.15543417681939    4.68826530219227    3.41020146614501
C         0.26451097822713    5.22789484014794    2.12902820374749
C         0.09394143705943    6.67036911562882    1.90281916981295
C         0.94159591528492    7.35409628970068    1.03316744367113
C         0.79141904440393    8.71354211898714    0.82962005050475
C        -0.21219957748061    9.40946036177131    1.48412291326131
C        -1.06386115784986    8.73804134595505    2.34656427856980
C        -0.91002411527919    7.38029960814507    2.55838358915009
C         0.55261346954832    4.36840572629551    1.06899650663182
C         0.73100590638075    3.01622326660549    1.28231109138741
C         3.21286786663431    0.90490318783333    1.68372860675147
C         0.36240601454605   -2.24338876602741    4.55608400381726
H        -0.87068062876905    0.74685868161323    5.43529443701964
H        -1.86972466166935   -0.27775834725293    4.41549990070986
H        -1.62125826898963    1.42300892805096    3.98579013218210
H         3.73026439909973   -1.79254877755821    3.66549789851809
H         3.58753679916701   -1.94002228853806    1.91462279642839
H         2.66527417395828   -3.01558059271274    2.97480439758994
H         0.28338701022236    2.94834184052441    4.63508392726466
H        -0.04123939587984    5.34194304335976    4.24620900862176
H         1.73844702612430    6.82319451952956    0.53304661413461
H         1.46131537189799    9.23406902158277    0.16058189422110
H        -0.32874800597776   10.47118179369929    1.32360917051759
H        -1.84924817745265    9.27671600719429    2.85639316777353
H        -1.58674020564649    6.86244165301152    3.22207581820754
H         0.62959614062493    4.76516376636603    0.06787604890539
H         0.93900306340365    2.36011156517910    0.44935100671893
H         4.12355251967864    0.59267841056696    2.19171305852658
H         3.26311723790026    0.54619356594730    0.65578702195147
H         3.16123805587801    1.99035998966895    1.66427125707759
H        -0.70486021818626   -2.25584745521885    4.75614589513892
H         0.65400678382533   -3.18809359957089    4.10446982513260
H         0.88442571565657   -2.15210902371541    5.50932857792658
C        -3.20137444913618    3.77343473930273    0.50571528670624
O        -3.85621347621267    2.65778152459537   -0.08021846776424
C        -3.33793178666059    1.44561545173833    0.03143692111529
C        -2.15584185480034    1.12494581032308    0.70611085566029
N        -1.68758789447549   -0.11402482574623    0.78895220586162
C        -2.36617632326758   -1.12899897316467    0.20646073790040
C        -1.74230150655659   -2.40843429150393    0.33502133333309
N        -0.59636879745255   -2.45327218166767    0.93841405245660
C         0.06837987048396   -3.67493527793855    1.09449002859416
C         1.37347414593904   -3.80854490775055    0.61514120543852
C         2.03333133668641   -5.01213073455769    0.74610510895810
C         1.39313648629565   -6.07956024447984    1.37251046554983
N         2.07686066487787   -7.33446289522246    1.50482261329685
O         1.47505238881814   -8.26196680550058    2.01440412148995
O         3.22228541765685   -7.40677203377688    1.09955717801659
C         0.09822805211191   -5.95037438851561    1.86822988289905
C        -0.56553899046899   -4.74927599183319    1.72550017482290
C        -3.56175828937885   -0.90332546473518   -0.48574455045047
C        -4.04486831183717    0.38018769960617   -0.57476159388336
Br       -5.65451857843152    0.77604068938222   -1.50263588464288
H        -3.14733649165051    3.66887690875597    1.59094647062869
H        -3.81820711411839    4.63201796930442    0.25094306668291
H        -2.19891074034091    3.90548571192148    0.09450679798128
H        -1.56709516901220    1.89735158326478    1.17929585710758
H        -2.19540802517330   -3.29400057251134   -0.09562112672815
H         1.83823320926062   -2.97146493511175    0.11805276644036
H         3.03548369244180   -5.14509294290673    0.36943136939603
H        -0.36787299513043   -6.79426928920238    2.35268820149038
H        -1.56590846221168   -4.63135343909556    2.11113201830318
H        -4.08552721115843   -1.72376578338600   -0.94920270094093
Cl        0.94075290710939   -0.40068463532178   -0.66566123666957
