55
 energy: -85.335083090425 gnorm: 0.000484122642 xtb: 6.4.1 (afa7bdf)
Ir       -0.31744360623735   -1.53768462454330    0.85132873676544
C        -1.49953610133519    0.64580060895397    3.20985428601191
C        -0.36183790894707   -0.09173374405983    2.59164804362797
C         0.11415349379557   -1.37640324896858    3.02945454162005
C        -0.42351077986050   -2.14966256338514    4.18453970377218
C         1.37511973080126   -1.63319429463088    2.37279459285218
C         2.31991592088452   -2.71998938399297    2.75424286786034
C         1.61769361971642   -0.57291433860026    1.46362016613987
C         2.84878431331809   -0.33238223038579    0.66180416741587
C         0.51990899682852    0.37652444994307    1.57401998129961
C         0.51754760179074    1.71952147259820    0.92358168396538
H        -1.18662923679120    1.00147685061100    4.19226779970061
H        -2.36541459438323    0.00317446498240    3.35065538207076
H        -1.78668414463824    1.50894112719465    2.61722864756862
H        -1.49469277253585   -2.00505567964480    4.29142690674127
H        -0.21718049988059   -3.21095040306159    4.07479844381245
H         0.05907413594310   -1.80631233764015    5.10050036303920
H         1.79413562809118   -3.64425247349696    2.97970380489365
H         3.04279173847445   -2.91182235761444    1.96756614775620
H         2.86052968464422   -2.41145320370506    3.64974825836336
H         2.59257300168077   -0.03965920405318   -0.35450373914178
H         3.47751889633513   -1.21675199571462    0.62278873305897
H         3.41747041485536    0.48187870534836    1.11160590242129
H        -0.44747018932007    2.20891186535917    1.01623856905098
H         0.76331816408686    1.63115945954254   -0.13229339465871
H         1.27124506407390    2.35115945205776    1.39411526445410
C         4.94389401763685   -5.64211046416982   -0.46758726787905
O         3.85823407646507   -4.73099643202685   -0.46826858274543
C         2.67009621427167   -5.12644585968891    0.02155769901498
C         2.41379177912508   -6.38075111381244    0.57539470582229
C         1.14373579803237   -6.64306867074419    1.05769560750472
F         0.90601321876725   -7.85606649944700    1.60188789707649
C         0.11038189359451   -5.72991717605808    1.01249379200855
C         0.37974311184891   -4.47731577256562    0.45569370041140
N        -0.62200901975243   -3.50039042430092    0.37840402234501
C        -1.79753000937789   -3.81146518142826   -0.06804898990729
C        -2.75853141858611   -2.75148973416377   -0.13954468062268
C        -4.04446138996474   -2.88243546239559   -0.66744024120256
C        -4.86076612312448   -1.76932510747413   -0.72949234101183
C        -4.36598979105277   -0.55177865036905   -0.27209698781218
C        -3.08066884256922   -0.49266122048388    0.23617391469554
N        -2.29298512766245   -1.56197332656177    0.31764040475469
C         1.64435458556971   -4.17786635918904   -0.02693793845724
H         5.77577420747977   -5.10020925448937   -0.91212465938311
H         4.72082603091348   -6.52524485497023   -1.07117573433229
H         5.20609872446628   -5.94354847887860    0.54987865105222
H         3.16392929648963   -7.15034497407617    0.64252586771603
H        -0.85502579254824   -5.97877343930414    1.42124081971917
H        -2.03337550281815   -4.80830742973113   -0.42191794808660
H        -4.37551585423174   -3.84389614366580   -1.02556855968017
H        -5.85843468971867   -1.84129660163455   -1.13259904921541
H        -4.96690994021124    0.34212935873951   -0.30946560229265
H        -2.66816405710306    0.44101185927690    0.58662061548944
H         1.83626943343968   -3.21907971344503   -0.48170899262311
Cl        0.05255759921325   -1.14113724603154   -1.47757998282392
