74
 energy: -110.466705530404 gnorm: 0.000531185204 xtb: 6.4.1 (afa7bdf)
Ir        0.12251520456967   -0.01913785580333    1.47770042630193
C        -1.66020354943736    1.46658526410239    4.00777692706897
C        -0.44668159635927    0.74041857426388    3.53465179175509
C        -0.35719622891869   -0.69790328872207    3.54038491195226
C        -1.41917708185524   -1.61760085268485    4.03898800609037
C         1.01222273131601   -1.06261417727168    3.28658961309346
C         1.57360226610334   -2.43150350908091    3.45949572534934
C         1.73336067398751    0.12761939911938    3.00633900089000
C         3.20657029778216    0.23951341968104    2.80337003738943
C         0.82564522515547    1.26081345606446    3.15496642450618
C         1.31109593828359    2.68504928983534    3.18642712858154
C         0.52765075578587    3.65445010000408    2.29497809329636
C         1.17847909347529    5.03438797665225    2.33824239315482
C         1.22335806810256    5.55981811742646    3.77129631551165
C         1.97843628828744    4.58832471746877    4.67483033290755
C         1.33733227616383    3.20382084871597    4.63337007152287
H        -2.56306915887246    1.05653274878622    3.56025808719040
H        -1.61051981899605    2.52880518421177    3.79946212874719
H        -1.73886263027116    1.33267018481789    5.08743634761072
H        -1.28160239288853   -2.62262099040611    3.65091602100056
H        -1.36902284631232   -1.66482912028459    5.12746083490079
H        -2.40829779627634   -1.26391331568275    3.76262096124382
H         0.85980651526318   -3.19384081876710    3.15947492489908
H         2.48617573113511   -2.56559917628317    2.88632078809721
H         1.80478299914422   -2.57849487461788    4.51506205126717
H         3.65262626591393   -0.73588502598090    2.63497214634703
H         3.43170941518429    0.87660017987749    1.95014316910005
H         3.66364550479747    0.68176549805747    3.68849539324471
H         2.34053544909248    2.68517852019093    2.81616082131754
H        -0.50234180640901    3.75068335086929    2.63800782753113
H         0.52329564095040    3.27587713957504    1.27167765778454
H         0.61787404528374    5.72606115224813    1.70617459727590
H         2.19412781270329    4.97339792174337    1.94123502602081
H         0.20474100643650    5.68697606551408    4.14554489652732
H         1.70787440239038    6.53794321092973    3.79338510845716
H         1.98102453345080    4.96082658179031    5.70129133221517
H         3.01736176967115    4.52148126063048    4.34336410265840
H         0.32220117925000    3.26447980215184    5.02614993698706
H         1.90150522000461    2.51363050663714    5.26355344509102
C        -5.34004618849821    2.45755456262400   -2.29746024571800
O        -4.55191535909049    1.27561972690400   -2.35182482156034
C        -3.59891187532959    1.07956692572131   -1.45047535323760
C        -3.27111150122787    1.95014676117933   -0.39824338890537
C        -2.25373896429303    1.61247979529958    0.46835419468460
N        -1.55316221755298    0.48560194431438    0.37348476735047
C        -1.84395960761130   -0.36284382416920   -0.64805449812334
C        -0.98669035473435   -1.51268788087213   -0.70152704366985
N        -0.04303308905337   -1.57513153593525    0.18113974334192
C         0.84902031532714   -2.65758856037574    0.17988433310297
C         2.22173246863744   -2.40568381771002    0.16765868628180
C         3.11095056423628   -3.46448734318202    0.15137008538198
C         2.62743747597991   -4.76090197268225    0.16632962134626
S         3.79026482366329   -6.13648003810378    0.16472624560442
C         4.20360141615217   -6.35868183957450    1.91480336192279
O         4.97886270741866   -5.73074557510077   -0.54750460759300
O         3.10190809917787   -7.31468095170414   -0.30712974037626
C         1.27000548124203   -5.02203625562524    0.18897596185894
C         0.37187780323468   -3.96943746217001    0.18874908084867
C        -2.85125056052675   -0.10135023016672   -1.56116434680414
H        -5.89843111694956    2.51255896064114   -1.36082307084301
H        -4.72021204590530    3.34806808780558   -2.42040373792069
H        -6.03394755321418    2.37945440922788   -3.13130714220969
H        -3.79315196587810    2.88051576841216   -0.25217910098308
H        -1.98793279419213    2.27784425730656    1.27527065457093
H        -1.09821937300981   -2.26099264590684   -1.47763952463565
H         2.56772341585589   -1.38389036021656    0.13496770273461
H         4.17605107292623   -3.30317335642575    0.10569829308019
H         3.29068077252496   -6.58552948458152    2.44952093713546
H         4.90018342838620   -7.18540616997728    1.98374620554011
H         4.66324508699871   -5.44534982049789    2.26828201573291
H         0.93793674389764   -6.04765027092499    0.18587125160339
H        -0.69070588908457   -4.15606098552718    0.21302953788546
H        -3.05968848035280   -0.78667302618188   -2.36567343180026
Cl        1.33399285778316    1.08176974230674   -0.26469443052626
