74
 energy: -126.632651914544 gnorm: 0.000170393399 xtb: 6.4.1 (afa7bdf)
Ir        0.21080876124536   -0.67342776884312    1.34962664296170
C        -1.07999404041509    0.65360688533593    4.13345738525868
C         0.13399173329996    0.27271237793732    3.35995095167347
C         0.84809254107392   -0.95907161939986    3.48276296080253
C         2.01597465118986   -0.88201983637761    2.64242365040089
C         3.15808822487395   -1.84052042675359    2.65650286386817
C         2.06330207191989    0.43612884359381    2.06518150848185
C         0.87857467441908    1.13262401832033    2.46085096290552
C         0.58683645550177    2.53769444992213    2.15063975733519
C         0.28599619987804    3.45094301555155    3.16025702397052
C         0.03907520430444    4.77405279852725    2.85280874691911
C         0.08056174129611    5.22648686657055    1.53441414597438
C        -0.17754995555242    6.63722728454622    1.21280398954719
C         0.59313980210918    7.29843363603501    0.25828399156128
C         0.35543194618526    8.62749436104598   -0.03996446228708
C        -0.65954081218030    9.31544928743138    0.60510488189957
C        -1.43408874069910    8.66649303653230    1.55304972550617
C        -1.19388712124429    7.33928276685730    1.85767896158394
C         0.38176464615406    4.30989848619183    0.52772892976830
C         0.63350802775935    2.98687784118025    0.82901914111009
C         3.20961198854607    0.99514416017733    1.30471724360608
C         0.53589102205194   -2.06920096014887    4.42338542317441
H        -0.78610154636192    0.93193640733630    5.14622203866020
H        -1.77524249952236   -0.17900473404611    4.21069690452407
H        -1.58558787044588    1.50059038805043    3.67712980370619
H         3.83219195965509   -1.56889568421660    3.46993820712544
H         3.71426145294796   -1.79589735758046    1.72503062412213
H         2.81942832106764   -2.85890269741165    2.82285529052258
H         0.27979178007566    3.13254112538713    4.19045476030500
H        -0.16736081957766    5.47426766206185    3.64778722630049
H         1.39758390826629    6.77503570923666   -0.23742806887772
H         0.96428398002792    9.12982583982887   -0.77764375634156
H        -0.84653698504486   10.35271180646133    0.36924604183476
H        -2.22916198609277    9.19782230826079    2.05563011594633
H        -1.81495069363335    6.83545852900733    2.58370770849252
H         0.40049539988025    4.63415217668362   -0.50170504910319
H         0.84957880725309    2.28618256809354    0.03546207435167
H         3.25232219240562    0.57483026673493    0.30009675305904
H         3.12056555076922    2.07489414626078    1.21897997976333
H         4.13936723294944    0.74442263119821    1.81219746405531
H        -0.51346050843892   -2.06927983760989    4.70202062621823
H         0.79357240090331   -3.03380878727704    3.99255673687816
H         1.12885340666886   -1.93818771849467    5.32923538737698
O         0.15643053889247   -8.20539363008380    2.63776806259308
C        -0.40222016916556   -7.14416190217714    2.48309675688575
O        -1.65302708057032   -6.91877753161886    2.86968936109891
C         0.23429331878086   -5.96080869136621    1.84045543209714
C         1.55584458850621   -6.05981549071597    1.40849885872726
C         2.16824781359815   -4.97585266063405    0.80184138060083
C         1.47604335851584   -3.79060936475156    0.62967994736196
C         0.15003245499433   -3.69158465251771    1.05438966640327
N        -0.54381681530332   -2.48882960176849    0.85260887581356
C        -1.71742274258142   -2.51111394328710    0.29817197999383
C        -2.37618170804576   -1.25381100909454    0.11061432541940
C        -3.60428180495290   -1.09019271453145   -0.53756866602219
C        -4.13043016187307    0.17819251899404   -0.67300409467781
C        -3.40044605000409    1.25298051536536   -0.15819786934804
C        -3.90485779800138    2.66548450219126   -0.29205179722370
F        -5.24229425121008    2.73127625178153   -0.31434736639594
F        -3.49276592799316    3.44865303902654    0.71515991481371
F        -3.47363543412027    3.24523902347286   -1.42640791957484
C        -2.18149953625159    1.02534583282999    0.46188129689467
N        -1.68471133793628   -0.19541721838794    0.60404159107225
C        -0.47514958895878   -4.77928167085603    1.65945709163859
H        -2.05205230695692   -7.70415001999830    3.28490035690383
H         2.08066443144540   -6.99058851102534    1.55683924418039
H         3.18776573797733   -5.05513914034313    0.45958805550227
H         1.92847607588303   -2.94539051620460    0.13403132216477
H        -2.16729952779191   -3.43464776936441   -0.04712568805179
H        -4.12382025982485   -1.95014623183617   -0.92836837410900
H        -5.07955934032523    0.34337297631562   -1.15926685550158
H        -1.59792116885382    1.85031742395348    0.84970311331128
H        -1.49151205660242   -4.70261385839033    2.01169673718717
Cl        0.92156724326994   -0.48685020728589   -0.90756903464987
