69
 energy: -119.171859955328 gnorm: 0.000469436620 xtb: 6.4.1 (afa7bdf)
Ir       -0.20257754247747   -0.88087845164267    1.84512018328091
C        -1.91884403470382    0.26379296126999    4.51775140179890
C        -0.60961457207024    0.09175567192406    3.82761644232965
C         0.30631187149217   -0.97672235750389    4.07532245149863
C         0.11325524805894   -2.00855599548817    5.13304139794887
C         1.50695781451996   -0.71945270039758    3.32071574786755
C         2.80547843525038   -1.44559563982501    3.43763778114176
C         1.35436146803877    0.53855608809646    2.65837372469498
C         2.43800354942643    1.27773992323794    1.96040999550282
C         0.02302460696658    1.02068075790166    2.92235281572819
C        -0.47366639108392    2.35301186425634    2.54930049590344
C        -0.94768753738833    3.22379392277978    3.52917210403257
C        -1.37723986484924    4.48374330033952    3.15573984962839
F        -1.83004435105344    5.32125627573363    4.11002773848475
C        -1.36524368093254    4.91830312829765    1.84188082623338
C        -0.89186694517584    4.02917403822061    0.89162346959012
F        -0.87351677394773    4.41526702853150   -0.39925935488185
C        -0.44557307614272    2.76233985960337    1.21568564731823
H        -2.54677495344793    0.98733277965124    4.00613470790860
H        -1.74328346981779    0.61517582466857    5.53514097638430
H        -2.44911873927133   -0.68273942574879    4.58634069183601
H         0.92660454146838   -2.72702857035289    5.14260799349864
H         0.09244773216478   -1.50814015659818    6.10181171831322
H        -0.83285071634754   -2.53225049557816    5.01594040083155
H         3.41273687270744   -0.96664517372183    4.20699558592470
H         2.66121326229392   -2.48554839989972    3.71312706936413
H         3.35053946551527   -1.40443737422432    2.49821153224375
H         2.68492921554460    0.80315263063658    1.01126542750926
H         2.13758343957203    2.30259155647549    1.75938779138295
H         3.33446054571702    1.27697387961887    2.57867237599037
H        -0.95794051636651    2.94664785073345    4.56997010520911
H        -1.70274463494596    5.90487866709956    1.57160685061223
H        -0.09854166609117    2.09679935129786    0.44016291386593
C         3.71044479075436   -6.38369846501198    3.74809744462705
O         2.64363496569029   -5.45961046229051    3.61873083884526
C         2.23551507453278   -5.09506672537852    2.38628210626089
C         2.79806272926461   -5.53254404170975    1.18671069516287
C         2.28639871671059   -5.08617583777824   -0.02013994448977
C         1.22091601780990   -4.21054132251410   -0.04167790078385
F         0.73052097077734   -3.79259321945472   -1.22971197321692
C         0.65387297064083   -3.73513130762509    1.14677490006904
N        -0.39436716384590   -2.80332812530160    1.13649440348604
C        -1.43856505206050   -3.02554618049790    0.39918107127521
C        -2.41184447498792   -1.98595792711621    0.30776261132995
C        -3.59273125317786   -2.06012064867599   -0.43989861539346
C        -4.42706825016233   -0.96946762441972   -0.49244529672129
C        -4.07248788136964    0.20120586703549    0.20226660695058
C        -4.90527116945714    1.37212287938291    0.16742560614692
C        -4.75779538147232    2.62492305016495    0.73128685430787
C        -5.89002106741384    3.36639039161850    0.35002384117462
C        -6.64932869075041    2.52415445078038   -0.41491443501220
O        -6.06702453337426    1.32996908646852   -0.52901820422403
C        -2.87942204080788    0.19055376251439    0.93429552876936
N        -2.08242940764072   -0.86235289609402    0.99465351673435
C         1.16749683930030   -4.19663579756703    2.34911524034220
H         3.84706953126512   -6.51698110314986    4.81903961472071
H         4.63012742848194   -5.98992415985556    3.30888858147724
H         3.46097990597798   -7.34382361718980    3.29011209172569
H         3.62717942908102   -6.21984353714124    1.17698251955424
H         2.70788774218450   -5.41950342792562   -0.95502544018242
H        -1.56987903083431   -3.95486317465269   -0.14284455321431
H        -3.82466803322274   -2.96686736119612   -0.97494288797338
H        -5.34170737543128   -0.99371292436132   -1.06280544481033
H        -3.94204954584458    2.97235690205725    1.33127953076485
H        -6.11583433949270    4.38081425645199    0.60479521731291
H        -7.58899682175053    2.66502933161250   -0.91172604833128
H        -2.57270753771350    1.07165859859635    1.47601873687113
H         0.71133052986674   -3.88706415022217    3.27303970264390
Cl        0.55830380570430   -0.42219515890413   -0.35986937522581
