55
 energy: -93.115042078193 gnorm: 0.000768005272 xtb: 6.4.1 (afa7bdf)
Ir       -0.58905118285503   -1.23798985758430    1.70278258871249
C        -2.13549827793980    1.51721622144435    3.31003105075898
C        -1.07606761540827    0.48440780106190    3.16494766368388
C        -1.11354907756414   -0.78916131931227    3.85683198991146
C        -2.23870497343271   -1.25982274678318    4.71232348317795
C         0.20663110376637   -1.33206046606813    3.86513916565942
C         0.65660152950328   -2.39774109657835    4.80351096078292
C         1.01846869833747   -0.51123440276593    3.00505214305820
C         2.49528556663682   -0.60104464838643    2.82849244453842
C         0.22307202131615    0.64967672656699    2.62279954989374
C         0.76453923613171    1.86086063188384    1.95026268994557
H        -2.10377039207019    1.87887306198671    4.33913971916138
H        -3.12821409227760    1.11154320981152    3.13531495774276
H        -1.97444190713515    2.35982642812508    2.64665233197793
H        -3.20019705061299   -0.98796954791579    4.28632056309477
H        -2.20145031955121   -2.33605037956267    4.85309329926284
H        -2.16126260673414   -0.78614082096512    5.69184196169311
H         0.08256704838564   -3.31572027391418    4.69441762800679
H         1.71609402675413   -2.60877521715788    4.69574995110085
H         0.48877134739517   -2.03362091065549    5.81855866931085
H         2.77909232173127   -0.26176620348632    1.83586406009716
H         2.85528312882101   -1.61618181706626    2.96434256414225
H         2.98195301288450    0.04502597468924    3.55970000482227
H        -0.03384654410689    2.48454251537190    1.55921474632918
H         1.42009338929646    1.58343780511496    1.12787669969812
H         1.34581308641435    2.43830086552801    2.66840476688328
C         5.06132413326672   -5.20403765183840    2.44633264024169
O         3.78561360031165   -4.61314973630217    2.63046430491462
C         2.92330431757992   -4.57802899407629    1.59645531462993
C         3.17701662186072   -5.07172404126816    0.31587482305285
C         2.20470861851901   -4.97296181021807   -0.66470599543496
C         0.98382999041714   -4.40156401388487   -0.37758249561302
F         0.05580034696690   -4.30318174632436   -1.35733854357243
C         0.70549610404633   -3.87943548081606    0.89531349404591
N        -0.49674709326840   -3.20024068670179    1.12076095451207
C        -1.59667718985768   -3.72694083476258    0.67535573027262
C        -2.71015365788743   -2.86171495371031    0.44982342298690
N        -2.44982100031010   -1.54347614519145    0.63293817673771
C        -3.30822545772150   -0.66164864721026    0.12972044755639
Br       -2.79337019622856    1.14131292048121    0.09745143240779
C        -4.53039856751310   -1.01452207157090   -0.42937754905334
C        -4.86709488608615   -2.35716419493415   -0.52118976251996
C        -3.92566820702404   -3.28080834768492   -0.10607299563034
F        -4.15132960152800   -4.58959106379192   -0.24531459699918
C         1.68969311991859   -3.98285455959677    1.86522665514876
H         5.55953382697444   -5.11844563318912    3.40947178855496
H         4.97364484589516   -6.25816332725534    2.17336418008271
H         5.63824632901315   -4.66986268005578    1.68771441872780
H         4.12057599176885   -5.52819644543643    0.06889021999685
H         2.38632259333374   -5.34085227045776   -1.66195628834965
H        -1.65872400916732   -4.76222502500221    0.35786764887630
H        -5.19624616573713   -0.24773640665846   -0.79240449182109
H        -5.80826735826336   -2.68018083637359   -0.93679704145990
H         1.49996464287699   -3.62322565697291    2.85825831874094
Cl        0.39562683015721   -0.79671919258314   -0.42000486447899
