74
 energy: -110.672901035161 gnorm: 0.000346978563 xtb: 6.4.1 (afa7bdf)
Ir       -0.16347977231257   -0.25572862356286    1.92108323113477
C        -2.14715620185413    1.62496784747729    4.02741555865585
C        -0.87451015486790    0.92125671879060    3.70363771650139
C        -0.53251871179401   -0.40676690627845    4.13646212619300
C         0.88910069080290   -0.56731803129585    3.98632749584089
C         1.68997300420789   -1.62873132481688    4.65138226879299
C         1.40043138580196    0.58815761324235    3.33211068703134
C         0.30274239397004    1.52581400363799    3.16742737847721
C         0.42370647094361    2.93739149086849    2.77594528439924
C         1.28995318492308    3.77293979725311    3.47881330418038
C         1.38294820751729    5.11290831097328    3.16054002085047
C         0.62813350607841    5.65598087552843    2.12262338478653
C         0.73660631353831    7.08137086771519    1.77747701608230
C         0.79121519961166    7.48619287793846    0.44538363356837
C         0.89257393688794    8.82670847830933    0.12146226949694
C         0.93222422618493    9.78424111517534    1.12210611738869
C         0.87563049691489    9.39258224108277    2.44986331137210
C         0.78214253119012    8.05201174648658    2.77610931424933
C        -0.23186849108175    4.81576433611261    1.41815289567097
C        -0.33998221542654    3.47929053508884    1.74518490215150
C         2.83993699984058    0.90750134878950    3.11242114470630
C        -1.42192929836551   -1.30712474660135    4.92629144301505
H        -2.12445004727411    1.88559700014684    5.08697503325179
H        -3.01760108290615    0.99386676651936    3.86613502731275
H        -2.24168308950224    2.54865990102806    3.46196583844932
H         1.86151174937460   -1.31261659275532    5.68230215260587
H         2.66229227682648   -1.75460822403902    4.18411822412012
H         1.15916228169565   -2.57673928922907    4.68496561873426
H         1.87714879895242    3.37558519573580    4.29205501159032
H         2.06521536509718    5.74474014991445    3.70962189108654
H         0.77670819192216    6.74367299659697   -0.33941275600810
H         0.94242404076194    9.12684937928691   -0.91527645784203
H         1.00785812479023   10.83145732590654    0.86827731200605
H         0.90273225275050   10.13617431164093    3.23330195043562
H         0.72290669057426    7.75495673634894    3.81320279514778
H        -0.83101960927111    5.21990389931527    0.61581869939237
H        -0.98798989931913    2.83889518111329    1.16626266423662
H         3.42317831351838    0.00635814743405    2.94161778299819
H         2.95985019964387    1.58516964896931    2.27032160064272
H         3.24358333468742    1.39300824543702    4.00154929497978
H        -2.46365294055044   -1.17186688669467    4.64998657758861
H        -1.15218513981331   -2.34992898570600    4.78430566586403
H        -1.31773210417027   -1.07305742606786    5.98650931139428
C         6.77628595142551   -3.21082799158262    2.38534866452566
O         5.59480465753735   -3.42757837265769    1.61054458198841
C         4.47982252496070   -2.79495520736476    1.94698174334097
O         4.37773306788427   -2.03061328744622    2.87937099277399
C         3.35664166269724   -3.14593807903458    1.00827157520598
C         2.00630381926214   -3.57022476223023    1.62392503735836
C         1.30003874057733   -2.75727308115431    0.52343405064250
N         0.09336604875458   -2.02965462270502    0.81046088690370
C        -0.94064602020435   -2.35237400947298    0.10911720684794
C        -2.12119986607435   -1.54429529716928    0.18611815686579
C        -3.27819153704326   -1.79376127843017   -0.55385360969956
C        -4.31847787048098   -0.88576164779247   -0.49969696294861
C        -4.15748571874141    0.25822996451629    0.27382914851737
C        -2.98368457118709    0.43574396288807    0.98531062267759
N        -1.99142710608556   -0.45053874281764    0.97045627614679
C         2.60868904978027   -1.96919405397823    0.34816188118916
H         6.56868620329215   -2.51090872033294    3.19540795225494
H         7.09448681562636   -4.17241812500125    2.78548512939400
H         7.54246258741316   -2.80901002927371    1.72362706378820
H         3.72476600493336   -3.86388163306420    0.27653416563702
H         1.79173342205750   -4.63468589885090    1.65372371295194
H         1.86712992845679   -3.12448887344598    2.60196084500910
H         1.13502867143410   -3.39392895717954   -0.35192637535063
H        -0.91525698896293   -3.17524503433884   -0.59902412129636
H        -3.33911646553577   -2.68247513341460   -1.16105122739626
H        -5.22674636404001   -1.05210694683264   -1.05670064858994
H        -4.93057800490461    1.00717976802588    0.32862997688021
H        -2.84154267242480    1.32278598554209    1.58167047784353
H         2.88428037223583   -1.70502157916198   -0.66802971204511
H         2.62259464441094   -1.08191582478148    0.97649323298081
Cl        0.59050560267066    0.76020445518536   -0.10788846706205
