72
 energy: -92.790898010304 gnorm: 0.000475973672 xtb: 6.4.1 (afa7bdf)
Ir       -0.47633821360682   -0.67549576341501    1.62262937025954
C        -2.45916202939285    1.15399560197336    3.75973272487885
C        -1.14537095099788    0.52743676362497    3.43487508182836
C        -0.82247715436927   -0.82367059367706    3.82020606473519
C        -1.71278408865463   -1.72435189153257    4.60851285697878
C         0.58910481417656   -1.01755840326930    3.62469516661120
C         1.37296560112648   -2.13905465816361    4.21302422892695
C         1.09890952010056    0.13829339809308    2.97625839777458
C         2.53428574535006    0.41599151152638    2.67591657108387
C         0.01865982155281    1.11581877817284    2.86915853603823
C         0.26725911308693    2.55821650473861    2.51805218990649
C        -0.67275087005376    3.15171152649015    1.46330732344535
C        -0.24935101870944    4.58215308293328    1.14073268559594
C        -0.27476587103833    5.44403710715802    2.40069693156812
C         0.63610319668229    4.85082274998217    3.47239179142634
C         0.22930812878499    3.41545916298484    3.79429868647176
H        -3.28624437671711    0.50111452624885    3.48786888516735
H        -2.59084712679127    2.11299151014272    3.27237171118814
H        -2.50552107317756    1.31063756046856    4.83840404991627
H        -1.44225827643359   -2.76714381786562    4.46857838013439
H        -1.61287430699272   -1.48887997112132    5.66882671005791
H        -2.75448305939750   -1.59198093613135    4.33040019069487
H         0.82388317472059   -3.07676781157315    4.18215533662149
H         2.33290388536091   -2.26164517155294    3.72067167996001
H         1.56387196720424   -1.90513002164516    5.26176348436743
H         3.11838663348086   -0.49947529079341    2.68275399840783
H         2.64178386881892    0.88445265905802    1.69973652451095
H         2.94284658281621    1.09276674683286    3.42655549360256
H         1.27837620310861    2.62331784173340    2.10506201277915
H        -1.70075003249756    3.17384450098027    1.82583865203781
H        -0.63223221155445    2.54184366875545    0.55990309909284
H        -0.91899779373858    5.00309671187649    0.38776174105702
H         0.75918406583066    4.58019333207671    0.72106480589257
H        -1.29704981891021    5.50153842975465    2.78277373507765
H         0.04666689609341    6.46015400818111    2.16307911995628
H         0.58681530830925    5.45712312249531    4.37942240014045
H         1.66915785319268    4.86830493701648    3.11705132434468
H        -0.77720386400687    3.41178864157580    4.21396929732920
H         0.90666656593365    2.99757214333884    4.54184027046262
C         4.50202247905860   -2.80564619056155    0.51627066967082
C         3.20360459458335   -3.48061423430576    0.94941323404799
C         1.96740910564185   -2.97530437498228    0.18869669439289
C         2.03480937682288   -3.43144633955427   -1.27409573545906
C         0.92532301182181   -2.89128041002310   -2.17128176300574
C         0.68450273609312   -3.47382795750260    0.89690508344198
N        -0.41493790817182   -2.54752858688385    0.78480588635947
C        -1.45959287165172   -2.89238047538676    0.11428419578295
C        -2.50000256593012   -1.91634335521857   -0.04943383750580
C        -3.63902240325513   -2.09411366378750   -0.83374872097779
C        -4.53370372650460   -1.04783921961113   -0.96247453830299
C        -4.25599554478432    0.15079401964927   -0.31452578318000
C        -3.10860391159877    0.25467310083753    0.45190591682326
N        -2.25619152257043   -0.75475132070117    0.60096546086160
H         4.39100956356959   -1.72359822906478    0.52124197978772
H         4.80182011255742   -3.11280236198271   -0.48165311991855
H         5.30513136623297   -3.07335297980194    1.19944588344735
H         3.29419114700337   -4.56048882354968    0.81537445428860
H         3.06905677529818   -3.29487437271506    2.01552502547400
H         1.96174092547759   -1.88113574075805    0.21465425539841
H         2.98644624204420   -3.08791963019955   -1.67967640338759
H         2.03993477744191   -4.52392694689573   -1.31202716597718
H        -0.01513159815626   -3.40825695586547   -2.00785099074961
H         1.19903868042086   -3.02586322515428   -3.21557742831942
H         0.77511636935311   -1.82991483496952   -1.99373660725606
H         0.90215993730462   -3.59215550041016    1.95985818824310
H         0.39894796170016   -4.44820104684110    0.48929942152599
H        -1.55662816468221   -3.87349498395519   -0.33850930586841
H        -3.79881358771603   -3.03519432809869   -1.33443823543485
H        -5.42433046648230   -1.15577551539381   -1.56090832951193
H        -4.91936952459411    0.99586476049024   -0.39919052453398
H        -2.86276765402588    1.17575900026180    0.95732754267487
Cl        0.39602047900630    0.25493752545539   -0.39480291316359
