55
 energy: -93.122794835503 gnorm: 0.000299888876 xtb: 6.4.1 (afa7bdf)
Ir       -0.29715491809804   -0.73264595289563    1.46464241127200
C        -1.82121974332616    1.53660867366919    3.69091278274914
C        -0.63006401162091    0.83448135941446    3.14763436508729
C        -0.14021871193226   -0.42228583846328    3.67065906716298
C        -0.76320438434332   -1.16401234421532    4.80270306263499
C         1.18189048812232   -0.63418765298205    3.15283615217057
C         2.16277463561325   -1.62394837694535    3.67296652757339
C         1.44444014118677    0.40204048756185    2.19808359786214
C         2.73849952705888    0.68218862592611    1.52057042059226
C         0.31619708243259    1.32033266260727    2.20908630648162
C         0.32521727165584    2.64800819367987    1.53496170344183
H        -1.61709122967238    1.78901273020419    4.73218263128103
H        -2.70581064463095    0.90448874522222    3.67569437018567
H        -2.03196668028474    2.45066073750194    3.14689847775452
H        -1.84741495925014   -1.13945334736034    4.73930959312184
H        -0.43028507561756   -2.19739042671408    4.82759396806522
H        -0.47057911638032   -0.69106576057815    5.74093841293385
H         1.67635028687294   -2.53932878619244    3.99696899624491
H         2.91728393145592   -1.86970288205230    2.93193250068210
H         2.66346046832192   -1.18224169512207    4.53587215650947
H         2.57486286079269    0.97047389120436    0.48455695479801
H         3.39933247854804   -0.17849561861991    1.55117337409230
H         3.22716862525664    1.51639914647534    2.02471431887407
H        -0.66465101446369    3.09246271673499    1.51460590131951
H         0.68603617917747    2.55611993911073    0.51352548865892
H         0.99872020410165    3.31546870522463    2.07312286552422
C         1.29357437029590   -7.12324616646993    3.31146841451410
O         2.40503780807533   -6.54295620689935    2.65097667523109
C         2.24253208564318   -5.38188280268565    1.99534034653603
C         1.06170741487904   -4.65127874743000    1.91710640604449
C         1.02137386496504   -3.44083869824345    1.22016907405293
N        -0.17461474086797   -2.71973622918110    1.10889174856684
C        -1.26381618806195   -3.34702615537698    0.78449007649636
C        -2.42819263620468   -2.55944432456211    0.54438159837046
N        -2.28376782513574   -1.22714346765853    0.75846004891590
C        -3.26679800617162   -0.42190272124395    0.36236781517047
Br       -3.00089656402998    1.42608359493060    0.50396667460687
C        -4.46692402763675   -0.87556655981650   -0.16866072916363
C        -4.66062933547701   -2.23956912881531   -0.33410959976625
C        -3.61749961960868   -3.07578647220118    0.01142645202075
F        -3.71558126737479   -4.39607453624875   -0.16920554218664
C         2.15903511596762   -2.94128530244177    0.59262214348913
C         3.33385175109494   -3.67210794710031    0.63782623599154
C         3.36914753075874   -4.86439067085975    1.32941385242263
F         4.51979637841823   -5.56273049200558    1.37625503075961
H         1.67315951645370   -8.03888663028255    3.75917008614937
H         0.49813518972739   -7.36748488178397    2.60310132909758
H         0.91313579937959   -6.46561511158775    4.09645216606524
H         0.17211516984529   -4.99993642443963    2.41596252304469
H        -1.28241116292527   -4.41421032956173    0.59702541147495
H        -5.23239656843938   -0.16866661752124   -0.44621190285441
H        -5.57742260453751   -2.63907324457573   -0.73743306026798
H         2.09944270803974   -2.01904730229916    0.03777498740716
H         4.22578848701870   -3.32877478127473    0.13908177746417
Cl        0.07512066494064   -0.28410757482324   -0.85033444667681
