55
 energy: -88.737074024806 gnorm: 0.000905857100 xtb: 6.4.1 (afa7bdf)
Ir       -0.68029475600641   -1.18769767269180    1.12631936479379
C        -2.10388972312305    1.22416260906111    3.11804502194011
C        -0.93520185411459    0.37763310426597    2.74517138416239
C        -0.63098359467403   -0.91195862251328    3.33143986301642
C        -1.41989205446824   -1.56894102315702    4.41132445851197
C         0.69619269202039   -1.28175276126208    2.92351234834569
C         1.48107039464451   -2.41630922813859    3.48142747336996
C         1.15610530107218   -0.30102639202327    1.99424793412856
C         2.52834658201858   -0.17572448270738    1.42767539160613
C         0.15120677726530    0.74881231699504    1.91525887594922
C         0.36123393375401    2.04959425219845    1.22184051958081
H        -1.85745751064577    1.77731684200120    4.02532685023899
H        -2.98271851246200    0.61987027225195    3.32673859351038
H        -2.33744604110860    1.94824916876778    2.34189950852839
H        -2.48738077467862   -1.43430229953315    4.26003966512338
H        -1.20096442818777   -2.63115197497864    4.46679360071514
H        -1.15612120006262   -1.11772120610019    5.36857500636182
H         0.85310531970164   -3.28477069460048    3.66053415532543
H         2.29222451523697   -2.70115577064652    2.81829122096637
H         1.90836330026086   -2.10616308229488    4.43539682430340
H         2.48835438446959    0.19490863522505    0.40612890217479
H         3.05276735696933   -1.12641147347228    1.43795988769771
H         3.09666613791356    0.54056592780098    2.02144008113899
H        -0.53667918535954    2.65959747565174    1.23423434025761
H         0.65893268289145    1.88845469710080    0.18746715781640
H         1.16294086611108    2.59456578489189    1.72011749020887
C         2.70029203556533   -7.88112042903336    2.16832498177597
O         1.55508609351642   -7.06714302478783    1.98238181033358
C         1.68366663889354   -5.88407688045876    1.35704639039110
C         2.87750302374349   -5.37877285856175    0.84249343850926
C         2.88064813856155   -4.13795004631287    0.22148687798980
Cl        4.37123230873802   -3.52617891754353   -0.42703762928672
C         1.73505582133285   -3.37297277152093    0.11278197159904
C         0.54355130100516   -3.88586921620292    0.62621012937728
N        -0.62125749525868   -3.11015619446918    0.52764096188092
C        -1.70341308030713   -3.61841197380627    0.02606069817283
C        -2.84294780955197   -2.75723076404477   -0.04697118833350
C        -4.05843090188397   -3.09331501931061   -0.65146902584271
C        -5.06801090755349   -2.15610024899114   -0.71048151893194
C        -4.82374452092335   -0.89496150721656   -0.16672199710620
Br       -6.15742008970510    0.46076977080668   -0.21285614647715
C        -3.59911348764250   -0.62147690959068    0.42652787210792
N        -2.63549146175865   -1.52983197735406    0.49711044014535
C         0.51130305413431   -5.13067158890999    1.23635915602858
H         2.34461602815957   -8.76328469980196    2.69597801231487
H         3.13452367704676   -8.18029116146574    1.21127385679627
H         3.45231948886154   -7.37108353726291    2.77505559586978
H         3.79877253622576   -5.93104961570104    0.91494920543415
H         1.73814354669067   -2.42021805665568   -0.38912566230470
H        -1.73194200687972   -4.62991464411928   -0.36052410379034
H        -4.19081284711348   -4.07615090354705   -1.07471080570658
H        -6.01804109848876   -2.38214610810307   -1.16839351010222
H        -3.40061171805116    0.35176695528966    0.84952207361250
H        -0.40151345830461   -5.52642045150007    1.65073148033578
Cl       -0.30044541849237   -0.55925162191129   -1.14591728457966
