64
 energy: -96.495499531414 gnorm: 0.000877674770 xtb: 6.4.1 (afa7bdf)
Ir       -0.50340117729769   -0.96620234077201    1.27300210354637
C        -2.07132337130459    1.00061174620463    3.61014073281949
C        -0.83835262792333    0.33541347120165    3.10206340527969
C        -0.46529394507260   -1.00196713665958    3.49866084540368
C        -1.21691374430479   -1.84472127957867    4.47096077850733
C         0.87894878930143   -1.24249983374394    3.05087394349627
C         1.72699537184725   -2.39136554568539    3.47199153069540
C         1.28634886015339   -0.11735896839249    2.27920601876193
C         2.65109037252895    0.12210086922779    1.72896458318368
C         0.21633322936077    0.87536470269994    2.31371167456413
C         0.40721685511415    2.28941099225172    1.83521793073465
C        -0.69004337964675    2.81247000005852    0.90156756552901
C        -0.32726472776699    4.21340596730852    0.41565057364596
C        -0.15234402355278    5.16200020698629    1.59921890990919
C         0.91920601107713    4.63793293553101    2.55167105112190
C         0.56970216616300    3.23400724099055    3.03767016820179
H        -2.93829903235136    0.35068690601036    3.51238920492826
H        -2.27101080808296    1.93885348897160    3.10603571948479
H        -1.93543343357196    1.20586575134335    4.67281404603153
H        -0.96132068893474   -2.89444998903766    4.36086029101032
H        -0.95474272092596   -1.53792428814684    5.48428561827322
H        -2.29005014224673   -1.72651877115359    4.35124474127032
H         1.14024951381423   -3.29836802542764    3.58938069224412
H         2.52501926323739   -2.58241278355213    2.76107080166578
H         2.17784622513814   -2.15183543515365    4.43561633071173
H         3.24558801445506   -0.78608296915425    1.75028554071391
H         2.59919300901096    0.48220418785595    0.70332224438311
H         3.15537353060645    0.87904592876971    2.32964994428800
H         1.34003511158718    2.31622902362017    1.26428371666035
H        -1.64815495828607    2.86728263556727    1.41869614035472
H        -0.78929636315791    2.13774657558684    0.04969062374598
H        -1.11019152231506    4.58767179783130   -0.24681048517833
H         0.60061073125464    4.17363569265469   -0.15923674207640
H        -1.10063689858038    5.25704404795397    2.13379675474073
H         0.12483000145711    6.15502460195568    1.24008689061398
H         1.01571786357907    5.30799416565160    3.40835929734498
H         1.88177095666522    4.61850011595663    2.03550367740353
H        -0.35707550903738    3.27146216504962    3.61015734801425
H         1.35743843375487    2.86268927158138    3.69558450768981
F         3.61204553225252   -6.39254078797673    0.85666225184989
C         2.58172388314002   -5.52739076788867    0.78520400768659
C         2.81624957493556   -4.23928948089792    0.32946775523633
C         1.76044714182748   -3.35041924889914    0.26920507049671
C         0.47935854893573   -3.76185122474611    0.63933520125739
N        -0.58562424350636   -2.85473678022098    0.54482720789807
C        -1.67662778530893   -3.20638798427333   -0.06292990271866
C        -2.71231079469424   -2.22528181005959   -0.15111282288888
C        -3.90576039106427   -2.39010603967191   -0.86114154692869
C        -4.80377184179678   -1.34625655756828   -0.92932314142583
C        -4.47366125149944   -0.15406653142860   -0.28425579536980
Br       -5.65019001294528    1.33902897396917   -0.33478456699204
C        -3.27719874128737   -0.05199539262115    0.41229317921740
N        -2.41995987454381   -1.06176799126775    0.48593990006023
C         0.26505384958629   -5.06525588493213    1.09063790852244
C         1.32204526881517   -5.95094553867614    1.17562018497859
H         3.81035848199599   -3.95171095308586    0.02727012135506
H         1.90316707918629   -2.34666700122010   -0.10065462914805
H        -1.78167400391944   -4.17843723856592   -0.52998652452264
H        -4.10698378824489   -3.32541038662412   -1.35808454660398
H        -5.73163714318576   -1.43926978551176   -1.47117832068052
H        -3.01047538669719    0.86643029549347    0.91231343606425
H        -0.72143512844509   -5.37178463234881    1.40026613453863
H         1.18136043409775   -6.95930611310021    1.53106993799759
Cl        0.11934935663463   -0.29784826024482   -0.93420821959068
