65
 energy: -115.164865552874 gnorm: 0.000363381255 xtb: 6.4.1 (afa7bdf)
Ir       -0.55864763854489   -1.04074860117439    1.26744773556745
C        -1.91100381583966    0.44118992523874    3.99179903241095
C        -0.69253947159496    0.03802573327602    3.23703324869981
C         0.04405336974697   -1.16811680375257    3.45039222132218
C        -0.24412829047268   -2.15984577933862    4.52202058559202
C         1.22065574829065   -1.12431715773646    2.61863067893606
C         2.36370917768026   -2.08107615408245    2.66342110031927
C         1.23941253782104    0.13549565945243    1.93891544067181
C         2.38071435623008    0.67074985008513    1.15365680574961
C         0.02609418830722    0.83550049274882    2.27283515710498
C        -0.26475951805140    2.23109648236607    1.90955448334084
C        -0.47438220565925    3.18051092523285    2.90792425351616
C        -0.70702623862000    4.49430281485205    2.54564125071749
F        -0.90189970882926    5.40704829630119    3.51686848892163
C        -0.75223584075310    4.90792573474504    1.22576530486966
C        -0.54342476080212    3.94015981900621    0.25818582461885
F        -0.59522979366477    4.30286809469574   -1.03944146407615
C        -0.29996288367580    2.61576516146453    0.56973386459469
H        -2.40929687701682    1.28103791970452    3.51677305770094
H        -1.62335056397048    0.73591464708665    5.00159462587497
H        -2.60862188849691   -0.38808163956740    4.08084161186369
H         0.32993427901507   -3.06937833464077    4.38012738390594
H         0.04186114880055   -1.72463308745217    5.48049088321784
H        -1.30348954493094   -2.39782237307675    4.57137230956700
H         3.04751976275330   -1.78645943659454    3.45999660952764
H         2.02432222530495   -3.09414744379121    2.86028186407025
H         2.90737558811473   -2.07170785077864    1.72305562740165
H         2.51996927765013    0.10484378365034    0.23359998054040
H         2.21522746098356    1.71193024242174    0.89210074727685
H         3.29440552304113    0.58519137870837    1.73994648850588
H        -0.42855130666317    2.91731467875894    3.95152075276735
H        -0.93573484969462    5.93639985173966    0.96381849337421
H        -0.14962811654077    1.89279413937855   -0.21763400930553
C        -4.60972916869429    2.73026478876042    0.07429504246752
O        -5.04299564126238    1.51469845168835   -0.51732400889378
C        -4.32859674571365    0.40955425290044   -0.36682837979981
C        -3.15135965456829    0.29430276432288    0.37745545576829
N        -2.47483015303034   -0.84457517580755    0.48491960181169
C        -2.92445443748461   -1.95203633887888   -0.14903620160060
C        -2.07008598794327   -3.09246055539343   -0.00918184702413
N        -0.99571957338386   -2.93548824598487    0.69147374387904
C        -0.06533275805724   -3.99098409324837    0.80540694846130
C         0.01198424203303   -4.73483164587072    1.98119438243922
C         0.93877122899997   -5.75821574867287    2.08772203857850
C         1.79160290165062   -6.04742872312723    1.03565452761423
C         1.70396019314571   -5.31217227735958   -0.14418914774817
C         2.57213875858711   -5.60785203567415   -1.31613156166343
O         2.47702033410401   -5.04141043675945   -2.38150654121119
O         3.46479435866084   -6.56318520142160   -1.08170375894317
C         0.77276791529141   -4.28590270357302   -0.26157181107124
C        -4.10511088451370   -1.93601759207773   -0.89798805719257
C        -4.80661910028561   -0.75891975423757   -1.00552965522025
Br       -6.41666938933795   -0.64768875622988   -2.00349891894638
H        -4.60210213078544    2.65181393656803    1.16308472786968
H        -3.62091409475342    3.01388468977362   -0.29213242897207
H        -5.34056034857234    3.47487730590578   -0.23348947002778
H        -2.74071982073699    1.14956259192673    0.89194145108677
H        -2.31052530692913   -4.03604065708297   -0.48519516374509
H        -0.67072797749059   -4.52255187794164    2.78809963281665
H         0.99286849406366   -6.33734207434804    2.99625166431448
H         2.51721766441259   -6.84023327128373    1.11561429198717
H         4.01877096966637   -6.74438178763492   -1.86201858364990
H         0.72128121266741   -3.71694383394592   -1.17670208748527
H        -4.44651793101265   -2.83141056255860   -1.39134725360772
Cl        0.09108850136668   -0.74302240167481   -1.00278307146408
