83
 energy: -123.430781840588 gnorm: 0.000648621453 xtb: 6.4.1 (afa7bdf)
Ir       -0.93781953865284    0.62068981758637    2.21763125718476
C        -3.07867067755895    2.79114857459607    3.69230681426837
C        -1.77280005908721    2.06113167507102    3.67778963942255
C        -1.48170298163409    0.84891335043662    4.38085226643819
C        -0.07266129242533    0.60040874443389    4.28268766886161
C         0.65047287060486   -0.44898640199479    5.05732921297451
C         0.52626510623907    1.70723996460755    3.57643744797053
C        -0.51113148513665    2.63274324773744    3.24606851947663
C        -0.34128270909315    4.00205795750666    2.76109094085591
C         0.63878403917821    4.81783852105287    3.33253140383138
C         0.76837734692647    6.13590061586724    2.94722557489122
C        -0.06110476466828    6.68230477320235    1.96865530333013
C         0.08832550068783    8.08399400910813    1.55259115699759
C        -0.00108173231799    8.43822527257007    0.20764063995605
C         0.14590597260574    9.75610459182765   -0.18404162353929
C         0.37622322509447   10.74258415193358    0.76128546454829
C         0.46254965228962   10.40215008629042    2.10148570496841
C         0.32374476709975    9.08377575054967    2.49464928941555
C        -1.03728727758888    5.86585748255017    1.39915233881517
C        -1.18583394481578    4.55331825015696    1.79682783055373
C         1.99461121969373    1.93280493967851    3.42331516346786
C        -2.41839494249408    0.04871893871705    5.21927515135264
H        -2.89767044558762    3.86031959404183    3.78546950236784
H        -3.69074011717542    2.46475782993000    4.52920850760904
H        -3.63708039447501    2.63431806530143    2.77048014686233
H         1.69846829260991   -0.50051544523709    4.77973121013601
H         0.19533863698406   -1.42740116160846    4.92370812509525
H         0.59418149865980   -0.20081528816254    6.11786803659881
H         1.27719572497369    4.43068273022228    4.11002505132022
H         1.53544093729339    6.74905754612842    3.39637785872043
H        -0.16359250003083    7.67263454558611   -0.53702810460397
H         0.08207805630908   10.01591393898556   -1.23084898622154
H         0.48790971853029   11.77220457422096    0.45460071612534
H         0.63700011793938   11.16856205995857    2.84273203168511
H         0.37641766914756    8.82934321834496    3.54323033441887
H        -1.70099293263468    6.27301622398513    0.65094526346533
H        -1.93485111667199    3.93728812905423    1.32761455743521
H         2.51744233507642    1.00685157682089    3.19961805819864
H         2.19345510778770    2.65523632654618    2.63590262738067
H         2.40093038395641    2.31956187358130    4.35850330856329
H        -3.45651353770164    0.26467005397376    4.98718252057775
H        -2.24228474005761   -1.01757399915486    5.10208733243837
H        -2.24506680353502    0.30013518673593    6.26658660784238
C        -7.38244243042764   -4.00879183622571   -0.48531642346594
O        -6.37857687574831   -3.17913362077915    0.09970504493044
C        -5.12605139706722   -3.37866878044164   -0.28724961461678
O        -4.77663095930312   -4.20674316830925   -1.09486060448292
C        -4.17445478756071   -2.44463367530685    0.39281139565730
C        -4.58885475958155   -1.53079043667486    1.36513910375111
C        -3.65010231548496   -0.69939024250641    1.94426211765511
N        -2.35787087685360   -0.73486823834874    1.62287188025570
C        -1.94594735541957   -1.60798282633854    0.67074580080553
C        -0.54628564393438   -1.51022800970531    0.36191282913189
N         0.14906649836559   -0.64976800570012    1.02119615031976
C         1.55558340197636   -0.52339968643535    0.73483076250174
C         2.38490629289755   -1.41678640013362    1.67194224401225
C         2.27665427861292   -2.90590459469735    1.32873122858501
C         3.10412568096261   -3.71021989394896    2.29600706480106
C         2.54987771790412   -4.17162320035265    3.48313496059915
C         3.31563541857878   -4.87985282125566    4.39243435716635
C         4.65106513816998   -5.13235450660177    4.12603226190103
C         5.21345437092103   -4.67536525775573    2.94572410154844
C         4.44481885762922   -3.96694539493807    2.03845659595071
C        -2.83283812588576   -2.47775437772416    0.04134524313799
H        -7.29248111354078   -4.00058460221017   -1.57266350777400
H        -7.27378709947614   -5.03418174255674   -0.12857360469461
H        -8.33505496675593   -3.59203464988366   -0.17102821488501
H        -5.62429985992745   -1.47481979666532    1.65633732216388
H        -3.94590265791155    0.02248455615844    2.69017965633090
H        -0.11901403326266   -2.11725747316833   -0.42904121423295
H         1.75781067799198   -0.80033731373473   -0.30425271776221
H         1.83455063494015    0.52107126815592    0.88167844253802
H         3.42857571792578   -1.11028202595124    1.59654267136445
H         2.05380472309437   -1.27014126433468    2.69959428031495
H         2.63449916812259   -3.07433535765625    0.31166975308999
H         1.23474248166165   -3.22532888785554    1.39181429335790
H         1.50723150982412   -3.98303126591528    3.69453803200387
H         2.87174637301628   -5.23758257744778    5.30990874378530
H         5.25088679638825   -5.68566755876001    4.83371481743423
H         6.25400031041159   -4.87241912303703    2.73154416694824
H         4.89150144708550   -3.61664732731316    1.11883767268131
H        -2.49266628888081   -3.16459150861353   -0.71813385259001
Cl       -1.47277813547774    1.63092873302864    0.12034488808068
