58
 energy: -84.563462419398 gnorm: 0.000458908995 xtb: 6.4.1 (afa7bdf)
Ir       -0.39658725486932   -1.20771192455109    1.46744282651739
C        -2.18764192664712    0.80544484106394    3.60313347387168
C        -0.93155896898184    0.07995185436751    3.26183559865986
C        -0.62407039133597   -1.26355546478269    3.68932103483178
C        -1.48763111183048   -2.10192832328323    4.56922204643728
C         0.76432833745906   -1.51300293157121    3.39702698393986
C         1.56434012354435   -2.65165170671289    3.92971569122594
C         1.27110728755748   -0.38553720388070    2.68961014586112
C         2.68807542137104   -0.11951589218504    2.31280420236316
C         0.21340627577298    0.60914795932717    2.61069198522462
C         0.42798313681081    2.00338616062395    2.12831225364089
H        -2.13645905481387    1.11290165232766    4.64856039930630
H        -3.05958420364047    0.16584511327547    3.48906416734837
H        -2.30975471151708    1.70011075794292    2.99894768107948
H        -2.54068698344051   -1.92604530327860    4.37032591906594
H        -1.27867168208629   -3.15970935459647    4.43753050030206
H        -1.29136131641517   -1.84569882477053    5.61107638787200
H         0.95161594606221   -3.53692626759207    4.07553613319670
H         2.40352455574352   -2.88967299156861    3.28220828100996
H         1.96482928583881   -2.36243353548395    4.90257155117929
H         2.74429892592015    0.29682896802705    1.30907696288309
H         3.29273360032817   -1.02056131951637    2.35551681620692
H         3.11026463068011    0.61272845560072    3.00136061303594
H        -0.49194650042604    2.57918417441613    2.14217564651084
H         0.82383647401189    1.99861863143699    1.11454048183254
H         1.15760172884097    2.49826754408678    2.76879856499537
C         4.72076223433767   -2.73756174654384   -0.64651377848283
C         4.48521847748230   -3.90169014504262   -0.07047529258203
C         3.16221170953604   -4.41319539748381    0.41747562805078
C         1.99552064043664   -3.45695321436925    0.19278183660877
C         0.69646133767831   -4.02439652607084    0.77851852006273
N        -0.37764423395155   -3.07551732146444    0.62945184847854
C        -1.32874360417929   -3.32522395201664   -0.20259310856847
C        -2.34548851564339   -2.32913496314950   -0.36606472324015
C        -3.39878851431478   -2.42181969608137   -1.28065569340941
C        -4.28045046322826   -1.37289713582601   -1.38572928731743
Br       -5.74192634945808   -1.41607193505477   -2.59955769227417
C        -4.10828222837664   -0.22360201032211   -0.58138432343451
O        -4.99005331934297    0.75719384297453   -0.73323022087993
C        -4.86800858032454    1.94795796822059    0.03114999011567
C        -3.03520047181503   -0.22538955190413    0.31178786286038
N        -2.18710799907740   -1.24342225936248    0.42265921447888
H         5.71222257413036   -2.46204505429573   -0.96399181281572
H         3.94933118924118   -2.01149248804582   -0.83526247031699
H         5.30392850995530   -4.59345514878643    0.08818876153932
H         2.96214125711254   -5.36350331580209   -0.08647008796168
H         3.25911673041796   -4.63950892632958    1.48393211090589
H         2.20573965824760   -2.49410750622616    0.65848261005514
H         1.85875057193346   -3.28447791940999   -0.87502116486042
H         0.44409897909736   -4.96271317528550    0.27468434779095
H         0.83733328921401   -4.22124210245449    1.84284123453955
H        -1.36458258326667   -4.24299518713649   -0.77968927337899
H        -3.50613956069842   -3.29815676401594   -1.89890224746462
H        -5.69617392663511    2.57684058804152   -0.28772546541280
H        -4.95953290980375    1.73649083220763    1.09819420172073
H        -3.92304016825677    2.45181962387189   -0.18074260233981
H        -2.85176376306434    0.62464178743155    0.94941812542506
Cl        0.44663140868095   -0.37916726898689   -0.61318139629350
