71
 energy: -117.640858756247 gnorm: 0.000476815791 xtb: 6.4.1 (afa7bdf)
Ir       -0.47881004652024   -0.74161311737978    1.45378255917401
C        -1.96752145674446    1.04078663190312    4.00424682804509
C        -0.74853116634942    0.40820611457284    3.42976473050173
C        -0.34393044548105   -0.95036272910545    3.66991790019132
C        -1.04272794080705   -1.89739859500015    4.58516255022013
C         0.98478026444451   -1.11633652005525    3.14130623474918
C         1.89813298601857   -2.25578105105499    3.42862763040820
C         1.34138890152881    0.07837401433822    2.45789183824346
C         2.69502048712716    0.39223787584505    1.92181639498455
C         0.25915364071486    1.03613422368704    2.64352227366908
C         0.36938602437152    2.47578515582406    2.35475281416178
C         0.26904683508015    3.38711156000740    3.40499832672425
C         0.43062957667291    4.73399577491260    3.14236861258028
F         0.34123646302769    5.60754943593753    4.16651648736306
C         0.68176037106650    5.22223018774555    1.87254328644997
C         0.76877315289538    4.29253142631152    0.85083627455222
F         1.00719184531771    4.73279062877612   -0.40123679020218
C         0.62060219422150    2.93531019738839    1.06348687739202
H        -2.14236785219273    2.02406415115748    3.57823868787463
H        -1.83472402499366    1.14259682293527    5.08180215031702
H        -2.84710133046755    0.42205446808218    3.84123618015759
H        -0.77725902259412   -2.92679964930650    4.36213505078062
H        -0.74553291258257   -1.68640833674413    5.61307237262298
H        -2.12101675542205   -1.78391911269841    4.51596927120591
H         2.42224293112540   -2.04883156553912    4.36252531234204
H         1.35428794416213   -3.18868521514943    3.54700973366370
H         2.64088804310748   -2.37424779842526    2.64525975420744
H         3.09038622738014   -0.43854174943151    1.34276407057780
H         2.67252383520052    1.27793238845927    1.29435685093527
H         3.37279925254586    0.57344496480807    2.75671796470326
H         0.09614399047606    3.06042938354527    4.41714781654330
H         0.80494739309440    6.27617779332590    1.68741435618883
H         0.67619029923234    2.25088770638846    0.23047878250480
C        -7.89910916405637    4.68407018746819   -0.00896584215992
C        -7.30219456728876    3.28603030580071   -0.02569268313335
O        -5.92915555454765    3.39485070335252    0.33812332118017
C        -5.16673259275819    2.30097403647901    0.39696370020387
C        -3.80813508777495    2.52928743838256    0.74639021542123
C        -2.92629352619810    1.50057671631349    0.86782875688354
C        -3.33081863832836    0.16739741672601    0.63500207760788
N        -2.45587324848048   -0.85182012151133    0.76111291437573
C        -2.82831425204266   -2.08957092789195    0.38844179190640
C        -1.77191264753329   -3.04958313662012    0.39479806025837
N        -0.60025233785701   -2.63488091672503    0.76412213296357
C         0.49897796099434   -3.50220073714130    0.72843545054887
C         1.69419953461454   -3.06286609876019    0.15749296726752
C         2.78337714770869   -3.90901991654615    0.09200907904235
C         2.68719085135728   -5.18949407418022    0.61997525021921
Br        4.20724695906113   -6.36035779415691    0.54589342634045
C         1.50969284462322   -5.63398721040370    1.20473762080811
C         0.41390897550562   -4.79386723095170    1.25126732949727
C        -4.13998589491019   -2.38833748826692   -0.03070507752156
C        -5.06815152211591   -1.38883485027581   -0.07895069052700
C        -4.68244229355656   -0.06494510469055    0.23161771342160
C        -5.58064736914800    1.00817168486483    0.13787666920514
H        -7.80736615014361    5.11878761355982    0.98235791180072
H        -8.94949570579068    4.63521047307429   -0.27949186886329
H        -7.37917055419174    5.32207205983159   -0.71825632454082
H        -7.38260646775987    2.84903299533335   -1.02846143098687
H        -7.82207470900848    2.64036683808331    0.69246325863022
H        -3.50129309672612    3.55050902724625    0.90419537689437
H        -1.89060836293672    1.69548829613356    1.09460742817431
H        -1.93079815179303   -4.05823690696799    0.03144547503058
H         1.74183261164184   -2.06962864587520   -0.26261075481233
H         3.70212949836102   -3.57995821405468   -0.36617027868949
H         1.45151084376789   -6.62787787724992    1.61800640420733
H        -0.49976398365528   -5.13039212038315    1.71650856664031
H        -4.38470849768829   -3.40215727962621   -0.30138718069201
H        -6.08637631298512   -1.58739957492505   -0.37525766551172
H        -6.59377058169777    0.79280247056477   -0.16015149766103
Cl        0.04961033867788   -0.03937850206939   -0.76130878724183
