81
 energy: -117.239709066527 gnorm: 0.000710173490 xtb: 6.4.1 (afa7bdf)
Ir       -0.35276780238004   -0.51315930759952    1.69458127543908
C        -2.32728724642103    1.55435137923065    3.58449981038823
C        -1.07050282737821    0.77771984669953    3.38646572963160
C        -0.83737969296378   -0.55773621340977    3.87667025246592
C         0.57419644042507   -0.80849516905108    3.82396076198248
C         1.24483793001018   -1.93103045011041    4.53991725225302
C         1.19535610010186    0.29220501191324    3.16813742332303
C         0.17051220470188    1.29354147126055    2.91859980109266
C         0.40557995238659    2.68468480278087    2.50342742038253
C         1.27849206104127    3.48365227744590    3.23993074686530
C         1.46851468108444    4.80896024151317    2.90346971658352
C         0.80568638180409    5.37300233670023    1.81521509505534
C         1.01089555092754    6.78508013745257    1.45947176708024
C         1.17037594364475    7.16720911263014    0.12911556673037
C         1.36503863173529    8.49555547220925   -0.20253558977393
C         1.39550741924351    9.46372498241565    0.78825931874088
C         1.23486072046176    9.09474278109063    2.11409498227721
C         1.04768706240761    7.76599409206132    2.44836325959696
C        -0.05610709299881    4.56767923079558    1.07348958433183
C        -0.26047665054174    3.24659230230463    1.41735805464421
C         2.66305238064507    0.53025095854273    3.03532719823062
C        -1.82535061724282   -1.38439253577155    4.62941656722227
H        -2.39697238268811    1.82820777169028    4.63836373664687
H        -3.21132840757302    0.97108165760539    3.33741903241419
H        -2.31352909551069    2.47137502393566    3.00114090338488
H         1.07878860519258   -1.79645105736435    5.60985024654668
H         2.31597491464694   -1.93421784371731    4.36305378101837
H         0.82653797941874   -2.89702079101075    4.26530415481418
H         1.79405431183178    3.07072870335304    4.09301152637944
H         2.15430646303833    5.41279561358432    3.47906782882288
H         1.16363612876289    6.41541687809817   -0.64698203087283
H         1.49458284558286    8.77762760771253   -1.23763192858686
H         1.54387580428899   10.50157478899088    0.52804841699742
H         1.25481697785621    9.84653709965110    2.88943917163782
H         0.90866513002140    7.48713923108047    3.48286403532777
H        -0.58034439974521    4.98788942308093    0.22796727458958
H        -0.90923159629354    2.63128857195006    0.81208506843744
H         3.19794266908267   -0.38707303954274    2.80671078983931
H         2.85951204968174    1.25770829120688    2.25180151533031
H         3.05459571619553    0.92187945281465    3.97510578685525
H        -2.83495042981545   -1.22392718603139    4.26162677135773
H        -1.58509051327913   -2.44147975177036    4.55703885640697
H        -1.80096623903773   -1.10343691414308    5.68316912905091
C        -1.29348906102683   -2.85876605646128    0.37302155051544
N        -0.17672424313482   -2.37322020946991    0.80402398885545
C         1.02716746890539   -3.12835994450292    0.48778760000842
C         2.26149548256569   -2.55329346926557    1.16984069114390
C         3.51180203470467   -3.34272078025762    0.78423584216020
C         3.71665601693964   -3.32051900821177   -0.72619271013074
C         2.48471547372017   -3.88690606633279   -1.42311871050724
C         1.24017226229437   -3.09502399884217   -1.03803587943451
C        -2.44224614375721   -2.00878065277227    0.35393903906434
C        -3.68070015966763   -2.35661436165318   -0.19361700167488
C        -4.65628077658732   -1.39536353343081   -0.31813220038750
C        -4.37713857268720   -0.07853063171601    0.08585127752056
C        -5.35038508121226    0.96918066827927   -0.06775752561606
C        -5.32391180499175    2.30892407454142    0.26446348455558
C        -6.56405330204389    2.84029263854531   -0.13408703570968
C        -7.26088474973085    1.79819309156423   -0.67959713063664
O        -6.54261058204539    0.67419840793515   -0.64294495476611
C        -3.11988943440939    0.18036650848707    0.64606205315840
N        -2.19659492201331   -0.75243114135022    0.79850845386788
H        -1.35279484005363   -3.85000689188007   -0.06405772058380
H         0.88148188519227   -4.16954106380939    0.80421655915593
H         2.37423655892613   -1.51472096466544    0.85409901785506
H         2.13169346963384   -2.59200872034635    2.24789460692441
H         3.41112792328318   -4.37661863069293    1.12245147853978
H         4.38204003286178   -2.91298369001337    1.28254284356924
H         3.87919197345377   -2.29288269114356   -1.05726057907943
H         4.59939882043111   -3.90338737604880   -0.99411290512400
H         2.35704355488057   -4.93527349496144   -1.14310798570200
H         2.61380876328550   -3.84366574447684   -2.50576824955322
H         1.35150636633492   -2.05372677049674   -1.34386266848214
H         0.36756582617931   -3.50431364887033   -1.54922492011837
H        -3.85028533925733   -3.36922166216388   -0.52208723339365
H        -5.62190185543897   -1.62894935782136   -0.73684989453935
H        -4.52575603807800    2.84612834366047    0.73236695518866
H        -6.89546806536357    3.85260061089110   -0.03247064704118
H        -8.24146812502784    1.74354976162187   -1.10989611684951
H        -2.86659448926499    1.17841891381271    0.96590034117975
Cl        0.45539960987513    0.36605124996871   -0.36668777487035
