79
 energy: -134.087901416848 gnorm: 0.000195927526 xtb: 6.4.1 (afa7bdf)
Ir        0.35400258360844   -0.55616086460439    1.65742156030041
C        -0.98527002992065    0.55237196926514    4.51494878476885
C         0.24250979113136    0.26017489639388    3.72546951386834
C         0.99354574526766   -0.95367010161616    3.77088026766209
C         2.15897037602207   -0.78775774422654    2.93797879042032
C         3.33005534090092   -1.70918679509371    2.88751544382469
C         2.16491581522141    0.56472819606610    2.44469148433817
C         0.95718893203125    1.19714843789872    2.88077329356425
C         0.61612570814146    2.60837669259128    2.66230299603456
C         0.28564148435163    3.44004360532855    3.73157234167014
C        -0.01679634356527    4.76923878751813    3.51376501268733
C        -0.00310135426932    5.30879025251145    2.22786705787058
C        -0.32830759177969    6.72402760066089    2.00059330460256
C         0.40458516351291    7.48364871442388    1.09068761972462
C         0.09942162193972    8.81577809499263    0.88018100165416
C        -0.94647139253436    9.40841001982407    1.56901886980156
C        -1.68367397877796    8.66113504978417    2.47334717778151
C        -1.37542733186807    7.33094062567531    2.69113471403065
C         0.33089528775723    4.47440618463448    1.16176910924425
C         0.63869472006237    3.14569210913535    1.37336758297644
C         3.29254101726895    1.20532773034921    1.72218116525421
C         0.70850540613153   -2.13030980355925    4.63596358822186
H        -0.70413348093540    0.77693677927579    5.54458787794537
H        -1.65292926187291   -0.30573015891020    4.53782994285819
H        -1.51731936714985    1.40898901122480    4.10929151931530
H         4.00925429656668   -1.45673125491121    3.70280371864667
H         3.86832926537710   -1.60048925598350    1.95083787291644
H         3.02331593870875   -2.74369390206159    3.00779370894609
H         0.29852345707239    3.05367265777406    4.73811634251682
H        -0.24760418984084    5.40618163461906    4.35404168581462
H         1.23243136871554    7.03490838317285    0.56134820746863
H         0.67962400820765    9.39527161650083    0.17691032203417
H        -1.18625955450666   10.44811666411403    1.40155320492601
H        -2.50284891757376    9.11761763322389    3.00976927464435
H        -1.96685048161958    6.75034237147453    3.38367390277464
H         0.32901690705644    4.86677538097344    0.15623127485743
H         0.87857208340971    2.50907177047935    0.53393951031717
H         3.36367605636279    0.83066319707098    0.70135733603573
H         3.15714242935248    2.28268379078013    1.68216356732316
H         4.22667548206097    0.97318780603354    2.23062165821222
H        -0.34670311829682   -2.19298459287854    4.88469227515511
H         1.01869233733242   -3.05596746732791    4.15748828075993
H         1.27003342707734   -2.02776501213938    5.56510536906620
C         4.09598716998379   -7.21215537231774    0.96787192063278
C         2.70420508082875   -7.11075257500901    1.48850751531645
C         2.08738268002279   -8.15599620195570    2.08891552279421
C         0.73558139540527   -8.09053015211732    2.60009309559607
O         0.14465109502092   -8.99539717814612    3.14657207982300
O         0.07325497979042   -6.90090987944993    2.45023130850345
C         0.65300299278475   -5.83601078388278    1.85448862245055
C        -0.11926246192010   -4.68112564013765    1.74905832608707
C         0.42444607651727   -3.54379718177236    1.16707815515039
N        -0.32890855841612   -2.36853309536148    1.04922421970001
C        -1.51172090872705   -2.40824457636141    0.51561100428131
C        -2.22335026971804   -1.16997061076247    0.41246838775182
C        -3.47057966392451   -1.01918436779341   -0.20147100170864
C        -4.04690070025783    0.23355750455309   -0.25743873023366
C        -3.34753745756855    1.30661475716693    0.30123128052933
C        -3.90159065348542    2.70647330162131    0.25514156072085
F        -5.23851907291146    2.72795037620920    0.19523459014849
F        -3.54689458899242    3.42488279511963    1.33077832015913
F        -3.45754198551312    3.38432430054806   -0.81805012688566
C        -2.10862739243794    1.09291753746912    0.88601064408170
N        -1.56352580691155   -0.11350228424410    0.95158389805021
C         1.73837527735370   -3.56101659673789    0.68168482101766
C         2.48571829756300   -4.71094912694236    0.76589045951247
C         1.96800355471031   -5.87234026917430    1.35755702458792
H         4.10999450271066   -7.02456404566198   -0.10440802884373
H         4.49956380949189   -8.20280731290802    1.15388645301127
H         4.73671324845280   -6.47615176177087    1.44955458723184
H         2.57814581945479   -9.10733980005086    2.21917749992678
H        -1.11940074428140   -4.68639928050231    2.15122349938001
H        -1.92997903155198   -3.32862071030311    0.12536114767826
H        -3.96566026032488   -1.87615837416304   -0.62881167700002
H        -5.01140129860384    0.38747456346418   -0.71632185982957
H        -1.54850765004428    1.91752132089580    1.30800906599458
H         2.13021418647639   -2.67422833749948    0.20856594489692
H         3.48769558955605   -4.72055787027242    0.37109368524341
Cl        1.04841209351176   -0.19515378232064   -0.57959874852067
