65
 energy: -111.294614057324 gnorm: 0.000952633579 xtb: 6.4.1 (afa7bdf)
Ir       -0.62596277413216   -0.93951941537084    1.42191309557411
C        -2.23424956199715    0.86978332425591    3.82887208254688
C        -0.96868593626364    0.27596739049313    3.31632159249353
C        -0.47493168580303   -1.03187102469532    3.64521069305655
C        -1.10870211804368   -1.96789084798972    4.61630654447844
C         0.86506798230914   -1.14437430347700    3.12555108401735
C         1.82903455029080   -2.22157650843460    3.48161033968266
C         1.14728234080105    0.02765108786444    2.37356801490620
C         2.46938206870794    0.41491930712799    1.80823348793419
C        -0.00297580600214    0.91816816170947    2.48895032259208
C         0.00692673581584    2.34379587170242    2.11839020739260
C        -0.13077430743062    3.29933366859211    3.12432521323699
C        -0.06599426188739    4.63904467177114    2.79162325134591
F        -0.19303974661900    5.55619198810710    3.77334945173240
C         0.12590114423710    5.07639487199082    1.49343578797194
C         0.25214021713783    4.10287026713144    0.51772215881147
F         0.43611253922089    4.49335290636535   -0.76031919340120
C         0.19714957455807    2.75155433754061    0.80097078894388
H        -2.46553043437916    1.79711280220356    3.31275181658544
H        -2.11721724517986    1.08700302372483    4.89082899416847
H        -3.06837168430361    0.17928668962754    3.72718750146140
H        -0.80779881017382   -2.99405547908473    4.42572929889913
H        -0.78882230661042   -1.70485271634616    5.62526770043817
H        -2.19204157324383   -1.90043644609731    4.57739131043759
H         2.27785491323588   -1.97881169425380    4.44530675147189
H         1.33511711020386   -3.18523289052799    3.57445086183250
H         2.62474222116321   -2.30337036565422    2.74780008012233
H         3.04040289789566   -0.45977900041227    1.51075541204592
H         2.35157417736708    1.06898158744101    0.94920288544021
H         3.03796331894441    0.95256303740971    2.56789590179667
H        -0.26016535273650    3.01463424144188    4.15567885377554
H         0.17722922993727    6.12525701025801    1.25364166503157
H         0.27757662397486    2.03047898140647    0.00244724967831
Br        4.09627298148097   -6.59140187764171    0.86947586106037
C         2.58051794903993   -5.41292162614184    0.83371378313571
C         2.73185526555414   -4.11862819970517    0.35469670103785
C         1.64487573279989   -3.26728507988741    0.33998621270667
C         0.39968238662280   -3.71490913732058    0.78157393476098
N        -0.69750888313314   -2.84516419741558    0.73490446778347
C        -1.81792862897313   -3.23746227950080    0.21114223175351
C        -2.88107584019285   -2.28693755883168    0.17473205169973
C        -4.13507233443676   -2.50833836859351   -0.40458653809663
C        -5.05954819337565   -1.49177767917269   -0.41852602943340
C        -4.72234312646670   -0.24504922944457    0.13861686173845
C        -5.66362929083705    0.84037746439703    0.14228046199214
C        -5.58342621763935    2.13504186582743    0.61853917331221
C        -6.82466945675936    2.73561343677803    0.34503901981139
C        -7.57726712426759    1.77616832723976   -0.27497037602220
O        -6.89061667620469    0.64022835189386   -0.40018371378950
C        -3.44477167114908   -0.10232235395971    0.69714779870438
N        -2.56368921929454   -1.08701160112970    0.72840741713910
C         0.25922918545220   -5.02006730396420    1.25580854235258
C         1.35134728244393   -5.86545647804151    1.29141740094495
H         3.69087467065164   -3.78377839004125   -0.00572502108221
H         1.73588312382915   -2.26425014035320   -0.04906072708454
H        -1.92810630243671   -4.22317959591780   -0.22549770907535
H        -4.35601909013996   -3.47018183540298   -0.83814948361454
H        -6.03536223407851   -1.63104295446595   -0.85498293257228
H        -4.74824158230310    2.59832896551774    1.10009727938538
H        -7.12264566678362    3.73758937963009    0.57381174834795
H        -8.57934955878551    1.79289085785809   -0.65618578419496
H        -3.13923388257666    0.84027074628675    1.12431244562403
H        -0.69671746702473   -5.36101458378883    1.62161582099676
H         1.24930848974349   -6.87055851818537    1.66732679066774
Cl       -0.11408966170800   -0.33316994230538   -0.83078389649374
