68
 energy: -95.933530805375 gnorm: 0.000524199990 xtb: 6.4.1 (afa7bdf)
Ir       -0.48398645513132   -0.82332466351180    1.60213544780360
C        -1.94851364060642    1.11105537727904    4.03705487328181
C        -0.73863653491910    0.45790154663570    3.45825902413067
C        -0.34128395661759   -0.88304759875996    3.81565742243764
C        -1.04656390559821   -1.74601363263042    4.80716360554946
C         0.98756424523704   -1.10396334256715    3.31297147988745
C         1.86114975727769   -2.25233401961880    3.68372152330529
C         1.34910940107744    0.02932805306188    2.53674596348302
C         2.68540302163043    0.28516515985229    1.92394699768049
C         0.27470095312118    1.01292779335042    2.62985951633899
C         0.42793462419354    2.43092444219517    2.14832431242363
C        -0.71949324530271    2.93712825482194    1.26732585766458
C        -0.40316225229432    4.34248747578807    0.76313101041222
C        -0.18542260675550    5.29553926175492    1.93603294056074
C         0.93860323308889    4.78851443894747    2.83596547380018
C         0.63414385102720    3.38009485189309    3.33960215731587
H        -2.81394025896770    0.45402999665052    3.98223100982728
H        -2.18320903875115    2.04868017341322    3.54680288718629
H        -1.75659853248781    1.31475098475045    5.09131520298260
H        -0.77844691293951   -2.79060477703377    4.67730395648244
H        -0.75850040537155   -1.44546201990489    5.81530846877706
H        -2.12497301762396   -1.64558295723314    4.72079268278047
H         1.28625721036008   -3.16626654200867    3.80754867477683
H         2.63068345121958   -2.42745249966996    2.93789545504607
H         2.34853763453284   -2.02633564536333    4.63282641845049
H         3.27985266250241   -0.62303842814781    1.89382756688397
H         2.58052380405093    0.66556646666050    0.90969730664929
H         3.22145705278456    1.02894285008413    2.51354225971828
H         1.33266215250996    2.46990139533628    1.53431722822104
H        -1.65183482132157    2.97572762326803    1.83062284152808
H        -0.84935365405851    2.25833140491005    0.42309156223619
H        -1.22296962758565    4.70294348036071    0.13821980682625
H         0.49670453039652    4.31576044384843    0.14448687392914
H        -1.10768290607490    5.37648100660284    2.51646234315709
H         0.05935869727518    6.29243429255621    1.56376516762550
H         1.06735619108089    5.46176419451079    3.68613879936254
H         1.87502347974110    4.78180963872117    2.27319174344080
H        -0.26414226779724    3.40466891212982    3.95686320023193
H         1.45822265531634    3.02176492116405    3.95957429361956
C        -7.17803240967506   -0.66909041583923   -0.74293244461704
O        -6.14922308893702   -1.64973011587608   -0.74038182043766
C        -4.97377598963702   -1.36795843292041   -0.19094926744905
C        -4.61781247272653   -0.14957751876344    0.40927107388263
C        -3.35956892801922   -0.00616823342022    0.95447951918997
N        -2.44692705564889   -0.97320813408182    0.95508865384435
C        -2.76229021933562   -2.15007365738166    0.35402187577536
C        -1.68160752279640   -3.09537137149919    0.34785105217909
N        -0.56391332284364   -2.70578035771007    0.86923439033697
C         0.53603723323723   -3.57531987667873    0.89435618685769
C         0.39569686662086   -4.88469363973762    1.35417155950291
C         1.49256769019881   -5.72599951977980    1.37270699217450
C         2.72448441890686   -5.27900877403037    0.91948264055060
C         2.86162206090461   -3.97938313265753    0.45519593556700
C         1.77755885585419   -3.12134341023006    0.45225651674351
C        -4.00294721978252   -2.37843829868159   -0.21597621736725
H        -8.02406850091876   -1.14088682788245   -1.23778469516580
H        -6.87446043703765    0.21704163183016   -1.30426233560178
H        -7.45788244225002   -0.39247703315119    0.27580922049355
H        -5.30340136642796    0.67951412941635    0.45421695806083
H        -3.07175435244966    0.92843538605453    1.41100844320085
H        -1.79053493236327   -4.06951673537991   -0.11433075033892
H        -0.56235890191608   -5.22313881339349    1.71841650292166
H         1.38480184920955   -6.73536957224682    1.73863430736401
H         3.57560184484361   -5.94190960485275    0.92889078500046
H         3.81783380220317   -3.63268414907336    0.09412446589671
H         1.86281346109950   -2.11329438256529    0.07685168490527
H        -4.23066297164194   -3.31987688705321   -0.68730275739048
Cl       -0.01662551686880   -0.13085156650132   -0.64240683188037
