64
 energy: -107.462104244524 gnorm: 0.000323816938 xtb: 6.4.1 (afa7bdf)
Ir       -1.09836545028703   -0.83739913974720    1.57971459610819
C        -1.37325869475786    2.12810531090599    4.42560371535204
C        -0.53544465626540    0.98491179962109    3.99926226443171
C        -1.01064468342617   -0.30199459193621    3.65800091153552
C        -2.33647056291666   -0.90426213690822    4.05758312017863
C         0.15158464789883   -1.12181516978303    3.27222454456679
C         0.27291730294989   -2.59016551225977    3.59519563297288
C         1.30789859208846   -0.24051450060145    3.39558998538929
C         2.69422777710148   -0.65781574522593    3.10116774189678
C         0.87858313616588    1.00596562398058    3.83019449750851
C         1.72330191831904    2.18802180165151    4.01157935750694
C         1.67691196168383    2.91814652071284    5.19787736263831
C         2.48728167377974    4.02769654951699    5.33921881125366
F         2.43712799625531    4.72645694512575    6.49608286714015
C         3.34788975331249    4.45564288968297    4.34436817771148
C         3.36848068653952    3.71301833066979    3.17654409446077
F         4.19279506835818    4.10469325387976    2.17915591787232
C         2.58109411672372    2.59418043871514    2.99052000957917
H        -0.87177099088871    3.07166756791662    4.22867940751028
H        -1.56725900743397    2.06261647577198    5.49765844913727
H        -2.33430745745283    2.11909163155200    3.91722575897963
H        -2.72697053222575   -1.58288054585500    3.27884938442492
H        -2.21446509026793   -1.49990315768281    4.96297798185630
H        -3.07513026620481   -0.13147801263032    4.25180033122526
H         0.60766189839877   -2.70158881146603    4.62744737089382
H        -0.67911679575075   -3.10870454068492    3.49976996936476
H         1.00565430229371   -3.06451711240845    2.94701444245722
H         2.81620978283444   -0.78211764775851    2.02497708836049
H         3.40708171067292    0.08321551903029    3.45035555967471
H         2.90983201887866   -1.61755392088273    3.56708744134943
H         1.03843460620855    2.62106359439439    6.01334472786335
H         3.97015416795477    5.32553980511653    4.47202820206920
H         2.61109081629251    2.06385891910971    2.05294915965725
C        -6.25266297831892    3.91623599993735   -3.07980856707650
O        -5.52796101863217    3.10868823733292   -2.15213487133312
C        -4.79538737643728    2.12091686211836   -2.64790840320866
O        -4.70643067264926    1.84789987525272   -3.82153032770411
C        -4.07369658509426    1.36584559524539   -1.57450776345320
C        -4.27439297398644    1.62216476207996   -0.21817904928152
C        -3.55023577792517    0.89039068364325    0.70832269790046
N        -2.67561344160858   -0.04237912225843    0.36077321743573
C        -2.47564098302685   -0.30366962742379   -0.94986454352323
C        -1.50486816054938   -1.33743886403117   -1.19502647329245
N        -0.90511578730678   -1.83853825053714   -0.16800531405140
C         0.06893642664697   -2.83163212278584   -0.30944748559384
C         1.11430537101834   -2.68423018640520   -1.22216677858929
C         2.07376862198423   -3.67345514452644   -1.32670100722109
C         1.99287043439524   -4.81496934735619   -0.54229483314820
C         0.94880746047598   -4.96551680590216    0.35871179507481
C        -0.00766917608302   -3.97614868626796    0.48543995439884
C        -3.16721248693258    0.38026798506017   -1.94551333991150
H        -6.94590903495607    4.50596075208868   -2.48701226307851
H        -5.56510313349013    4.56567071590416   -3.62376097978871
H        -6.78573203506344    3.28669060612593   -3.79347587703249
H        -4.97665615160523    2.37412700768207    0.10001766901283
H        -3.67960558691770    1.05867144184047    1.76725128395981
H        -1.32076528506326   -1.69615194552572   -2.20141490758661
H         1.18268388785790   -1.78159428541993   -1.80924797135154
H         2.88811820689326   -3.55420909156033   -2.02436164880082
H         2.74295890021372   -5.58497894077661   -0.63288235633750
H         0.88082079547173   -5.85687574112071    0.96289212468204
H        -0.83831108462649   -4.09755614711024    1.16344070897683
H        -2.99970677411283    0.17063769165631   -2.99029112085898
Cl        0.31464265300836    0.73260366196549    0.67140354800002
