73
 energy: -112.405966948549 gnorm: 0.000510216525 xtb: 6.4.1 (afa7bdf)
Ir        0.01982394017463   -0.59592120271548    0.98799945672892
C        -1.60164695068001    1.88921785100763    2.88178428960782
C        -0.53603716732893    0.87698198686594    2.65604507896006
C        -0.61536943603460   -0.49078753227816    3.12430988673462
C        -1.79579934491919   -1.08632407838811    3.81472535389620
C         0.70821532519737   -1.03545065327833    3.12006527835119
C         1.11153029240990   -2.28513947722458    3.81817206017173
C         1.57281725472195   -0.07666421019303    2.49878303270151
C         3.06348925742303   -0.10233569426996    2.45858555272769
C         0.79365719119671    1.12131208161521    2.23786660723997
C         1.38493803595465    2.42114825756759    1.81596611644031
H        -1.57687545490852    2.16935182428345    3.93641428794449
H        -2.58953195153104    1.49128475842817    2.66864503655504
H        -1.43890897461511    2.78378336920577    2.29002601999992
H        -2.72480589340832   -0.70932600994069    3.39683175060984
H        -1.79091923198591   -2.17031040516328    3.74135131353330
H        -1.76635932345471   -0.81828453814765    4.87155276585562
H         0.32386148706205   -3.03292205253352    3.77928545738179
H         2.02972796821851   -2.69575452602535    3.41233859737609
H         1.28436938354681   -2.04281639666870    4.86813833588934
H         3.43046973671660    0.20717831408519    1.48190842501046
H         3.45648146884815   -1.08704243212059    2.69147218816922
H         3.44550927174344    0.60674165207114    3.19380731406600
H         0.62167278622555    3.11096132722290    1.46875415734480
H         2.10669915573976    2.27156074766962    1.01690818083566
H         1.90412435269640    2.87280653790604    2.66170920131488
C        -2.38279570927085    8.08174523828389    0.38590434168474
O        -2.59329667179815    6.67350039391009    0.33588319695511
C        -1.57784461878529    5.92467383723837   -0.10098890701876
O        -0.50680122524098    6.38034219246256   -0.43727092317574
C        -1.90582159813521    4.47567888198359   -0.11955836879817
C        -3.12535239700847    3.98982427065570    0.35087553271477
C        -3.38827221915875    2.63587778362960    0.31143330063569
C        -2.43823143837347    1.73720083172954   -0.18580435094375
C        -2.76995916198122    0.31103928904394   -0.31785020781162
C        -4.05041076040491   -0.01030543874995   -0.78348028479633
C        -4.40425262138897   -1.32399024268438   -1.03086028933894
C        -3.43885932379305   -2.30048839035974   -0.86363756746966
C        -2.18327805955528   -1.92429720737478   -0.39468823480476
C        -1.08634750157350   -2.84827570545778   -0.34591371215035
N         0.04146638932659   -2.47997603311304    0.15432633553714
C         1.15404552099162   -3.36660657007506   -0.09597180912934
C         2.59365838976269   -2.91354599145655    0.16552618636305
C         2.91496153096564   -4.35153054429781    0.61456018173097
C         3.85930531312809   -4.60615646557343    1.76105073333582
O         4.49723559856895   -5.62333357483172    1.88677789172152
O         3.91343227931264   -3.59415407059809    2.62825896255525
C         4.79727347506513   -3.74371230188177    3.74185080277526
C         1.40189670888658   -4.55327326062652    0.86064961632368
N        -1.86311840781931   -0.64625037410528   -0.07291597089729
C        -1.22293193544021    2.22785427374956   -0.65965838574238
C        -0.96210267520392    3.58481166533342   -0.62603963292258
H        -3.23894581235422    8.49522529763735    0.91161484580179
H        -2.32042674288626    8.48778268038075   -0.62536149566499
H        -1.45450466710736    8.30676505629033    0.91405223240444
H        -3.85683626216080    4.67764063458306    0.74265079186506
H        -4.32919081047374    2.27292512150650    0.69543155591760
H        -4.74884197540155    0.78757077745034   -0.97583649297594
H        -5.39455197956477   -1.57271783040739   -1.37771018007340
H        -3.63635567520265   -3.33504693866564   -1.09165539797136
H        -1.19711713472131   -3.80900671037410   -0.84016234172009
H         1.06880322780804   -3.73665447966778   -1.12215359431977
H         3.13905955590420   -2.52786280271367   -0.69023424859711
H         2.65361542838597   -2.20754472700797    0.98436657803155
H         3.25275373063250   -4.97380120884765   -0.21571305824522
H         4.42970914211665   -4.52406835566428    4.40918350910560
H         5.79411364149714   -4.01735614577764    3.39521961807579
H         4.81663380330581   -2.78205295787805    4.24675024010144
H         0.98332416076430   -5.51329357276122    0.57283421876266
H         1.12181814881142   -4.31376196420921    1.88174857068319
H        -0.49435407942941    1.55410121224886   -1.07987862684422
H        -0.02813748990954    3.97552379244316   -1.00000316097183
Cl        1.26995372981213   -0.09093586436120   -0.99306674612916
