59
 energy: -100.644891244894 gnorm: 0.000889969414 xtb: 6.4.1 (afa7bdf)
Ir       -0.80513958506432   -1.29248228475729    1.53930757890532
C        -2.20080707174067    0.64939310454761    4.11516540440507
C        -1.08219076305180   -0.13225971745440    3.52524587099646
C        -0.88683508959563   -1.54199647111902    3.76150808004461
C        -1.76924435532077   -2.38583403983739    4.61483081355595
C         0.43549498304878   -1.88907716858397    3.31700249061126
C         1.15171951349925   -3.14960849412644    3.65361465704601
C         0.99799188295040   -0.73583854663369    2.68622321902334
C         2.39909666793234   -0.57323374121932    2.21265146403128
C         0.04985878313916    0.35734257054292    2.82104703925240
C         0.37485647044339    1.77426475434483    2.49572888839143
H        -2.07838752601287    0.64974420784884    5.19904527433057
H        -3.16523546954434    0.19930274458026    3.89365150299068
H        -2.20056998927532    1.67595733866347    3.76652244501497
H        -2.81673727086297   -2.14688551735566    4.45253686996148
H        -1.61019342524781   -3.44316928984350    4.42426653440850
H        -1.53944325979949   -2.19283082977284    5.66366899228388
H         0.47593831549768   -3.99920881729587    3.69399693109571
H         1.94561342179239   -3.36435465755788    2.94449961716395
H         1.60260705349934   -3.03049297451856    4.63953844216043
H         2.42822612932758   -0.00289657503432    1.28714561278422
H         2.87892341887671   -1.53396909792406    2.05335148577306
H         2.96554855823701   -0.02278632453626    2.96433014495977
H        -0.50704879818626    2.40440574439568    2.54581145032731
H         0.80327450698648    1.84634388648688    1.49897954310331
H         1.11246716113741    2.14475140398333    3.20789219369719
C        -3.34755611042536    2.75026485191254   -0.03237760990323
S        -2.73275532841095    1.38388342774452    0.99503508103772
C        -3.43146238360701   -0.06380016841407    0.34614794537935
N        -2.70408569895600   -1.17378914255082    0.55492429233761
C        -3.07073048682653   -2.33639814120784   -0.03734751830546
C        -2.11594187774625   -3.38998186867729    0.09148428406736
N        -1.00285537568228   -3.11642484239743    0.69919211293681
C         0.00621333017661   -4.09046519634408    0.75156735308284
C        -0.26804142757478   -5.38181592997763    1.20111735636200
C         0.73965620023561   -6.32737691803739    1.23789395524328
C         2.01675630666594   -5.98795690965458    0.80691357586755
C         3.12055058158984   -7.00665234909511    0.86599577549444
F         4.03106823714929   -6.84767393546039   -0.10830108849092
F         3.80537795367401   -6.93783258500043    2.02919989913755
F         2.67559704058126   -8.26960058755217    0.77289460567796
C         2.29608617747836   -4.70161005617553    0.35582668945011
C         1.29369833993089   -3.75127858285450    0.33585076977660
C        -4.23622584583923   -2.45268006606111   -0.79732019803591
C        -5.05169554152463   -1.34953144185468   -0.92424609393876
C        -4.65788752626931   -0.13594132923595   -0.34998885848094
C        -5.57348052171739    0.93533251541992   -0.43332178135718
N        -6.38640524635706    1.74223619540268   -0.50045176096095
H        -2.59957807957008    3.53158540091843    0.07187437025034
H        -3.40237248971447    2.43351400403188   -1.06851390770022
H        -4.30868125195753    3.10697697040899    0.32344383854827
H        -2.28532354790345   -4.34922611471719   -0.38339225645163
H        -1.25989297146957   -5.63726526762474    1.53969162207876
H         0.53596624914509   -7.32671257591396    1.58964535612518
H         3.29038651854204   -4.45251662406709    0.01914299087672
H         1.48493158158292   -2.75246526115473   -0.02564547202413
H        -4.48535406356243   -3.39034422331662   -1.26460946012949
H        -5.98669733826906   -1.40098024342722   -1.46054624664839
Cl        0.01092933410038   -0.44535721265908   -0.52793016771561
