69
 energy: -99.548764267263 gnorm: 0.000241018074 xtb: 6.4.1 (afa7bdf)
Ir        0.86814912367303    0.08918786308408    1.84132257454710
C        -1.61785186236722    1.63831526958564    3.51254365102168
C        -0.25406133151879    1.04168024715144    3.48973012596274
C         0.01637143009572   -0.30739443126492    3.86701438000192
C        -0.99835914454701   -1.30484329659568    4.30962438979829
C         1.44338148942632   -0.48472075258286    3.90162794235423
C         2.16929892200287   -1.68580193196365    4.38213184690784
C         2.06557096901378    0.77966064767402    3.56802856758227
C         3.52207261620306    1.06034972189646    3.66176711582085
C         1.02173510203501    1.72893583970632    3.30968745724514
C         1.25837255057870    3.18348651312272    3.05057074445645
C         0.69353924846986    3.67135824107076    1.70738743254585
C         1.07474538956134    5.13275469865730    1.48844464421026
C         0.54898721310052    6.00089241393317    2.62924037871284
C         1.08583714391181    5.50582825838082    3.96962842980339
C         0.70343014568721    4.04615975969107    4.19873888538687
H        -2.35671015767875    0.93146654993749    3.14200133502972
H        -1.67965480935705    2.54956097817428    2.92896633338161
H        -1.87609353080092    1.87196975817127    4.54640863312862
H        -0.65416248678742   -2.32280910863796    4.15230812549259
H        -1.18239799471917   -1.17028033496496    5.37575729322827
H        -1.94036735731993   -1.16943486388259    3.78623197140815
H         1.53852764394914   -2.56952357763544    4.37583667531042
H         3.06272483906070   -1.87359116012316    3.79059146728490
H         2.48949308205353   -1.50191362190056    5.40928930254332
H         4.10331553896124    0.15106131465438    3.54331281695389
H         3.84015192524255    1.77548858233710    2.90829840390249
H         3.73942944174878    1.47940133674600    4.64487647647246
H         2.34044251158327    3.34186900424807    3.01719524744907
H        -0.39308986038221    3.58712490504852    1.69464919716601
H         1.09877030571650    3.05549817579798    0.90020674650950
H         0.66435731965846    5.47908301007119    0.53821300902159
H         2.16145459277632    5.22456998259665    1.43218847955478
H        -0.54286710528011    5.96975442530667    2.63927448891360
H         0.84845819370077    7.03790879567141    2.47038837926325
H         0.68131392936229    6.11601448275931    4.77888483139951
H         2.17270219693968    5.61034789664741    3.98583409022468
H        -0.38101858137200    3.96316780108663    4.24262941956422
H         1.11262672167891    3.69900612296792    5.14808029250826
C        -5.51902848309337   -2.78286517148320   -0.64463644350588
S        -6.07272357531684   -1.05642489715019   -0.74826693585629
C        -4.57698900022434   -0.23373288561129   -0.42079954015962
N        -3.50327817414314   -0.96435335780128   -0.19599598409316
C        -2.34143046455414   -0.36910461247412    0.06263573036412
C        -1.19635931120459   -1.24010048218597    0.25243628151225
N        -1.16955527588357   -2.44899235850928   -0.02473954875035
C        -0.15608464081088   -3.36632318766465    0.08121532039779
C        -0.18804137033267   -4.44684827177811   -0.80657656219074
C         0.80145074700224   -5.40856623320474   -0.75729288857192
C         1.81483408596426   -5.32011733437040    0.18684156359578
C         1.83777990977019   -4.26324834815187    1.08582461258635
C         0.86040283321008   -3.28951395545166    1.03804729026057
C        -2.20408382542688    1.01932353433645    0.11608140909006
C        -3.32085206633071    1.80292744110481   -0.12648675915517
C        -4.53796402994772    1.18604740105791   -0.39919294509630
C        -5.69532389686407    1.95324399503022   -0.64252339948499
N        -6.62681183594982    2.59648594420897   -0.83094502694185
H        -4.70888107026866   -2.93245459282191   -1.34906806727754
H        -5.19036908546953   -2.98913373248909    0.36729977094956
H        -6.38013453356470   -3.38970241513390   -0.90365073959918
H        -0.23804266042023   -0.64969070181832    0.65155989036707
H        -0.97898126620580   -4.49602725302542   -1.53732509464576
H         0.78144941528194   -6.23499550196820   -1.45089285029620
H         2.58089023882979   -6.07871778720360    0.22912651403031
H         2.61946515687623   -4.20646104773619    1.82729272503125
H         0.86602818795739   -2.47775117816856    1.75998509693390
H        -1.24120413133380    1.47008638822987    0.31564588635934
H        -3.26236103384485    2.88060217282255   -0.11071987889380
Cl        2.10848379223093    0.28246291278605   -0.01834400902839
