66
 energy: -91.635773198713 gnorm: 0.000271105149 xtb: 6.4.1 (afa7bdf)
Ir       -0.37513522104646   -0.55676401062378    0.56681486011161
C        -1.67704138377405    1.28078006918106    3.15302464027535
C        -0.51458782268138    0.88652085870959    2.30733262653415
C         0.40465935749117   -0.16973633363518    2.63895061450736
C         0.34433961525654   -0.95776553102070    3.90351259353590
C         1.52578016354910   -0.08157360426472    1.73243711033315
C         2.84020131813594   -0.77470141256736    1.87923395373135
C         1.25875456002493    0.96711085461257    0.81234050181651
C         2.19560333365176    1.52436934203367   -0.20088735202174
C        -0.02755310415064    1.54722251055547    1.14385175325144
C        -0.56305698108868    2.78836018332832    0.51175825244334
H        -1.29947249227161    1.71922882681952    4.07744845519954
H        -2.28822405284147    0.42160221749215    3.42045298851692
H        -2.29746147962201    2.02278965461210    2.65933057272378
H        -0.67512670908288   -1.25950664585470    4.12834809453309
H         0.96907043102586   -1.84390331554715    3.85446424871071
H         0.70014887882379   -0.33612968929455    4.72631900348046
H         2.76842311612351   -1.63276734529130    2.53898506044551
H         3.22950095681505   -1.10162359715058    0.91800860676849
H         3.55923521455535   -0.07603367413538    2.30851525792485
H         1.69804513322502    1.64230775821135   -1.16172818346702
H         3.06340027259014    0.88552320770760   -0.33384819482182
H         2.53017786191599    2.50956596199250    0.12508773868567
H        -1.60085839540924    2.96144609711061    0.78136143216566
H        -0.49245431686930    2.72085199681953   -0.57178383630826
H         0.02606568340397    3.64709162718114    0.83540162335989
C         3.23666492522584   -5.17312344896797    2.43722782654924
C         2.60666526333429   -4.77221503032074    1.10679949072858
C         1.26627612415267   -4.04268641911087    1.27848795187123
C         0.13720689174294   -5.00150259780763    1.68498541016324
C        -0.84768479144396   -4.37558568639535    2.66879334867867
C         0.94307072931957   -3.31029192331614   -0.04448317230841
N        -0.26539934103611   -2.53654983033741    0.03993497792655
C        -1.36036760523446   -3.03182993041457   -0.43257426959489
C        -2.55043171870363   -2.25035780217518   -0.29906079325871
C        -3.81875379387141   -2.63963816351846   -0.74117802893505
C        -4.88484555278283   -1.78748211480361   -0.57917685945600
C        -4.67317501311740   -0.53579201854125    0.02364224016038
C        -5.74045270856614    0.40817823316211    0.22662522055321
C        -7.08405400582259    0.35099926041557   -0.08034019142138
C        -7.64179390874969    1.56979277081070    0.35105853195858
C        -6.61048604931301    2.28481923195591    0.88999159646616
O        -5.46625240454001    1.59746866503131    0.82023265601183
C        -3.37382017716282   -0.22016208990495    0.43525700003586
N        -2.34836007029538   -1.04501471950608    0.29169716107124
H         4.17374447709644   -5.69583621013353    2.26191535898533
H         3.44752769281438   -4.29541788369435    3.04360624568058
H         2.58587200612751   -5.83286861193097    3.00486912003907
H         3.30649406396060   -4.12205871178051    0.57832395417439
H         2.45667222398298   -5.66118653821467    0.49135939197450
H         1.37779754227284   -3.29046595120135    2.06177771074336
H        -0.39571968525376   -5.34345505434756    0.79639037006705
H         0.56904071639266   -5.88831450847898    2.14993041860578
H        -0.35829376255598   -4.18829162703407    3.62135889459344
H        -1.68180362096277   -5.05008661367443    2.84620865864327
H        -1.23805998265339   -3.43393288029938    2.29004340868248
H         1.76171243414803   -2.62883173576778   -0.28319231820584
H         0.86252766875869   -4.05243080879638   -0.84562393063508
H        -1.39120393704507   -3.99464672459823   -0.93040703716203
H        -3.94108680686531   -3.60210808930947   -1.21077793827545
H        -5.86881560168811   -2.06878445281274   -0.91502368457309
H        -7.60812334180100   -0.45377878030421   -0.55247679373597
H        -8.66458797235483    1.87446280573635    0.27342082719674
H        -6.57557678651865    3.25913563536081    1.33619060268451
H        -3.18335123326796    0.73743685305299    0.89418776026577
Cl       -0.41693482554581   -0.17232650496112   -1.79542253932584
