65
 energy: -105.376293581453 gnorm: 0.000579847538 xtb: 6.4.1 (afa7bdf)
Ir       -1.02687937497686   -1.29238187983079    1.03352907854149
C        -2.11104028846210    0.95804152459278    3.38243678757503
C        -1.00747448215547    0.16309510720442    2.77222734124207
C        -0.60177874715293   -1.14966657008506    3.22529484512095
C        -1.18901543084145   -1.86569853120458    4.39384207176823
C         0.64334928825395   -1.47102893568958    2.58086507098545
C         1.56994362941434   -2.57386752162624    2.95331733626241
C         0.93048528499804   -0.43788062301902    1.64506443451981
C         2.18494996610731   -0.30106853645118    0.85517706611815
C        -0.08674232419588    0.59297350718887    1.78087007068359
C        -0.00339620785654    1.93444332525213    1.13492308284650
H        -1.77079774289638    1.34340152208372    4.34443448008142
H        -2.98857732459356    0.34269653558368    3.56466112083223
H        -2.38300744917385    1.80571398655695    2.76004637113585
H        -2.26337907187182   -1.71625984842332    4.44869832759446
H        -0.98336435936273   -2.93082635420490    4.34670603210585
H        -0.74496123744647   -1.47554025476910    5.31023938339603
H         1.05024331675671   -3.37584325598352    3.46676386854791
H         2.07652816567649   -2.97800013889521    2.08031757490957
H         2.32908643730453   -2.17152766205216    3.62531271725998
H         2.01602159384371    0.28837737333953   -0.04189600015467
H         2.57193772897273   -1.27360669530831    0.56085210481955
H         2.94035162687369    0.20109284770116    1.46086568443112
H        -0.86864377485988    2.54591749260384    1.37036055289177
H         0.06916825685993    1.83310683730042    0.05351904946976
H         0.89255205229807    2.44793723999753    1.48322600379233
C        -0.93864345476957   -3.06947188158555   -3.65627826873744
O        -0.65863748193310   -3.64282988371312   -2.38081424684158
C         0.58424450136612   -3.53101394790268   -1.91322560680616
O         1.50051462591680   -3.01456667180239   -2.50343344685099
C         0.72680037377994   -4.24764569255098   -0.60779759218757
C         1.80743267021528   -5.10041164735445   -0.47166744980092
C         1.96497813123526   -5.90403035864417    0.66285710916618
O         3.04993031764992   -6.70031348385644    0.67667718061221
C         3.26564094637758   -7.55131792614665    1.78955392348506
C         1.00263739144351   -5.83201891410634    1.67052975176803
C        -0.05200219875836   -4.94506484432292    1.55810176056464
C        -0.20314562473339   -4.13804555085656    0.43561493909320
N        -1.25744444114080   -3.20471462606756    0.39989821117773
C        -2.39210636606873   -3.51551747230116   -0.13543673217731
C        -3.40237778370110   -2.50412575285453   -0.12453555751540
C        -4.65429137209933   -2.63294258040664   -0.73534024903071
C        -5.51699701341945   -1.56448462663152   -0.71267736995724
Br       -7.23311727936172   -1.65089856175122   -1.52042762297682
C        -5.13148139938014   -0.35879690185145   -0.08142896524978
O        -6.00501475658096    0.63800302764866   -0.10173814388508
C        -5.67207475713552    1.89037913659059    0.48083632213379
C        -3.87234174276190   -0.32932128798943    0.52230161956366
N        -3.03734427734251   -1.36450328039769    0.50850649175234
H        -1.17460002948153   -2.01148971856930   -3.53091726623937
H        -1.79240902054704   -3.60946999650808   -4.05635014013089
H        -0.07288191223467   -3.16792670683740   -4.31241437611074
H         2.53606284744856   -5.16838463314462   -1.26365904260772
H         2.45049953521198   -8.27045461949091    1.90126649471279
H         4.18937820035125   -8.08287475752111    1.57127057993728
H         3.38582981407087   -6.97508536250860    2.71016975642552
H         1.06901598812136   -6.45553257117284    2.54655328886765
H        -0.78914420295500   -4.88388918185642    2.34354922795556
H        -2.56337911428882   -4.48517357294678   -0.58557309096620
H        -4.92348600700786   -3.55405651323798   -1.22564880792148
H        -5.51522531104217    1.78929149694938    1.55635645128315
H        -4.78953750138136    2.31912980371475    0.00270521540829
H        -6.53400699440828    2.52798025149714    0.29661977055787
H        -3.52736104102479    0.55872984756711    1.02788551763034
Cl       -0.74611479117146   -0.64745752894039   -1.23746809286582
