69
 energy: -107.986412288693 gnorm: 0.000541563363 xtb: 6.4.1 (afa7bdf)
Ir       -0.98674604693775   -0.75972999102066    1.21090661164766
C        -2.00217173714751    1.54168139964761    3.61421633651824
C        -1.06235585496572    0.50379808313101    3.10302060353574
C        -1.20050747982087   -0.90678931367904    3.41404883200122
C        -2.30058657975623   -1.48167477788164    4.24023866310207
C         0.02464108388127   -1.55677657633114    3.06981350981081
C         0.40547210065783   -2.94521031044228    3.44242401397747
C         0.85365780275400   -0.59855916328001    2.40523961439773
C         2.27181990257907   -0.78628536062136    1.99148135670316
C         0.19295036376988    0.69329896405321    2.47361112115999
C         0.85841332138904    1.97465719304603    2.09912034272327
H        -2.02406213430706    1.48168094687290    4.70260870327048
H        -3.01400745178087    1.37647303229931    3.25255566640034
H        -1.68082833068977    2.53996341852712    3.33436776341231
H        -3.24975155802789   -1.00509744431034    4.01056088570957
H        -2.39453756244675   -2.55227211250492    4.08175827079055
H        -2.08337806293591   -1.31431644213893    5.29606599141542
H        -0.45575074535856   -3.60776560481066    3.44791589112046
H         1.15889312149147   -3.34760977379986    2.77081579378366
H         0.82459583512516   -2.93015616584691    4.44932845297702
H         2.48702643558411   -0.20977218950502    1.09523848149276
H         2.49470261921264   -1.83243500555921    1.80116818056553
H         2.92933646500748   -0.43440352178824    2.78752180416100
H         0.23649147149957    2.83382016640458    2.33060869928156
H         1.09330704451403    1.98759855787054    1.03590262701740
H         1.79541410521406    2.06601947602959    2.64742469902721
F         2.59322175679356   -7.61640949033142    0.68086105155899
C         2.85879175461587   -6.48162507882807    0.01587637358601
F         4.03212465844347   -6.02703069202211    0.49741049204236
F         3.10128321557183   -6.84323205866029   -1.26201250407455
C         1.76436025392962   -5.45845993150967    0.11796122815052
C         0.51581603821863   -5.79935980730204    0.62291143573488
C        -0.47848516280291   -4.84129582402098    0.68486176245518
C        -0.23056685602105   -3.53903775511377    0.24544516609460
N        -1.23862141380713   -2.56773488558655    0.32580243960822
C        -2.43025521896067   -2.84542062150337   -0.08263558447856
C        -3.46807933091061   -1.87038737451382    0.08906989783607
C        -4.79567855283216   -2.22080117921058   -0.08716172053412
C        -5.76771329835489   -1.28149912770618    0.25167869047204
C        -5.37247107335048   -0.02046301100039    0.60526839163375
C        -3.99458553035880    0.34368083565086    0.59824446297955
N        -3.64009570982771    1.63168965944104    0.71994183093192
C        -2.40076264510401    2.14569209534138    0.16238423833427
C        -2.70761258216661    3.31563544257132   -0.77044150137454
C        -3.27640895211773    4.50171143543572    0.01698344024759
C        -3.97394796179039    3.99786826352142    1.28367608256826
C        -4.64018140130112    2.65033065407644    1.03213826703604
N        -3.05666757881727   -0.63103650356217    0.47582114780221
C         1.02898302486945   -3.20461094404061   -0.25089603077858
C         2.02034034861288   -4.16286236869692   -0.32174272258955
H         0.32601013276259   -6.80371750068737    0.96761901435931
H        -1.44272471774398   -5.09914761693955    1.09448474919398
H        -2.66120231826629   -3.79523489718451   -0.55384823434718
H        -5.05736548682775   -3.20658301867080   -0.43046930717773
H        -6.81462224141857   -1.53733387981969    0.21637112011857
H        -6.11614796403110    0.71678938762226    0.84729625027619
H        -1.91522959138692    1.35310424687400   -0.40209116335109
H        -1.72743959405304    2.47692612463087    0.95283071790301
H        -3.42057299519597    2.98384102238224   -1.52709201384797
H        -1.79383637364366    3.60111778202262   -1.29022610269413
H        -3.98112173346936    5.05111339112703   -0.60829954940670
H        -2.48060799888520    5.19394892257563    0.29286027776362
H        -4.73455759695125    4.70975517445179    1.60433572316258
H        -3.25734846348763    3.90091276287782    2.09826551912749
H        -5.18634752333401    2.34872592522026    1.92935479500387
H        -5.35138518152338    2.75862520591720    0.20513756328088
H         1.21030006545546   -2.20065187924454   -0.59981337512743
H         2.99397325662496   -3.91156898873910   -0.71335273233554
Cl       -0.06739558568687   -0.08024238123910   -0.90177250314127
