68
 energy: -105.340664670688 gnorm: 0.000663874285 xtb: 6.4.1 (afa7bdf)
Ir       -1.00314488920630   -1.06373536142576    1.17316971471543
C        -2.11392328459087    1.11866885730384    3.61287647092812
C        -1.02385612443564    0.29993192584990    3.01127002504774
C        -0.74441027803855   -1.06705759690592    3.37981981987800
C        -1.46539872030160   -1.82678292903381    4.44113474275195
C         0.52507235173332   -1.43156685610432    2.80463949403343
C         1.30926509840119   -2.64957567403212    3.14889696342203
C         0.95307290240917   -0.35534260267542    1.98156733006027
C         2.26963643553629   -0.21808904275905    1.29682776842967
C        -0.00871077793108    0.72726202614741    2.11501357066091
C         0.22995014419048    2.10468812833665    1.59177997626694
H        -1.84595698330156    1.34719683311271    4.64502381790223
H        -3.05595598542629    0.57563903079661    3.62572067213898
H        -2.25803629682571    2.05295819279452    3.08018073609481
H        -2.52439712354714   -1.58446701261169    4.44590544581604
H        -1.34724805897439   -2.89867366532568    4.30871108540871
H        -1.05310629878997   -1.55999734104302    5.41504775315075
H         0.66117488630120   -3.48019195782615    3.41335274523688
H         1.95055109003955   -2.95834398994561    2.32796509269203
H         1.94176636074381   -2.42509120638471    4.00851571027644
H         2.13956512840113    0.18030935564569    0.29264943314377
H         2.78305928634231   -1.17312428145512    1.24092781574824
H         2.89576341616253    0.47771420867081    1.85570215606325
H        -0.61304331171964    2.76074060976122    1.78709071471527
H         0.42174991749435    2.08207882332003    0.52039086624647
H         1.11111311948671    2.52297028677708    2.07813342502173
C        -8.14533096177360    4.71818437988538   -0.22570250378508
C        -7.64527796522248    3.28418730317024   -0.15473957557321
O        -6.23910237977774    3.32432138551577    0.06351314017384
C        -5.54787781792527    2.18556573575386    0.17532263520041
C        -4.15035157629754    2.34728130404564    0.37320061440196
C        -3.33133288449810    1.27236854044277    0.53030254075792
C        -3.84381193809657   -0.04247311608461    0.48367926575988
N        -3.02462795532286   -1.10412538797660    0.63947582109709
C        -3.50379226446986   -2.34183335675596    0.42098783226850
C        -2.50700799726211   -3.36439945760106    0.41311943328161
N        -1.28363723342013   -2.99210448478084    0.62463885116905
C        -0.23695138728050   -3.91895865000866    0.54614326666905
C        -0.32058743811175   -5.15555834988760    1.17947471841108
C         0.74006548174337   -6.03993343433802    1.07749104205172
C         1.84896997446191   -5.69432963203444    0.33551402775124
F         2.87013711333750   -6.57214520554714    0.23609428545515
C         1.95612057050550   -4.45614019833537   -0.32234979127656
O         3.08050499302099   -4.23011334887509   -1.02672765163491
C         3.19432797815275   -3.01825209159352   -1.75196660707271
C         0.89748358567257   -3.56637435348836   -0.18592620315670
C        -4.86618128865487   -2.58449158920082    0.15289916214550
C        -5.73242174499186   -1.53174308487584    0.09039232165999
C        -5.23799277634002   -0.21436710536636    0.22722183158420
C        -6.06927635805865    0.90854202660610    0.09811080461559
H        -9.21983560548700    4.72231090062961   -0.38268408202358
H        -7.66469258275245    5.24300559078532   -1.04668135258976
H        -7.91940021715861    5.23977044548048    0.70026441369586
H        -8.13076378076667    2.75145920841022    0.67224467865990
H        -7.85736205709543    2.75924177252743   -1.09440654684217
H        -3.76541160928897    3.35428635315096    0.38404340695959
H        -2.26653053136272    1.40034450402230    0.63555974540464
H        -2.75632471840556   -4.38771540103192    0.15810658992447
H        -1.18720885991627   -5.41352566882771    1.76605285915594
H         0.71462914943709   -7.00157253076126    1.56383687012377
H         3.18557690647155   -2.15484925573411   -1.08314870243257
H         4.15369797553859   -3.07694119214531   -2.26101066417522
H         2.39261748331812   -2.92135876464455   -2.48770305823808
H         0.91128170498156   -2.60327688651200   -0.67100348103435
H        -5.19659501063912   -3.59938278663191    0.00565116045676
H        -6.78497599841422   -1.68610871162096   -0.08964928021653
H        -7.11823875023720    0.73993099751640   -0.08417555595788
Cl       -0.54891423176598   -0.45547016428276   -1.09409260868306
