82
 energy: -127.847608128087 gnorm: 0.000819488874 xtb: 6.4.1 (afa7bdf)
Ir       -0.46480825044771   -0.46498165281338    1.48567561963629
C        -1.75462944694017    1.34357719045697    4.09538475652870
C        -0.57939420094023    0.69143954713344    3.45378047152795
C        -0.16726667755280   -0.66336388973693    3.68430367695011
C         1.11836268896711   -0.85068633983942    3.05784980818388
C         2.02878058414282   -2.00398768214601    3.29966435461878
C         1.44061690477430    0.33781154755772    2.34824122316230
C         0.38008258823686    1.30563028559099    2.59115257518108
C         0.49145212766057    2.74661693893346    2.31006359658017
C         0.46699482551162    3.64444967602559    3.37673383001632
C         0.62546142152438    4.99754878260886    3.15601388804364
C         0.80715212565134    5.49681876323302    1.86700663866039
C         0.98719492005750    6.93826091715133    1.63875358241787
C         1.91584655066714    7.39696799893476    0.70602532910876
C         2.09671508838200    8.75217510333968    0.50026935137724
C         1.34904908936111    9.67223120522343    1.21746729501661
C         0.41954756768636    9.22773561715509    2.14357789336898
C         0.24166461768530    7.87278764351672    2.35521666182234
C         0.82153667366234    4.59508847336707    0.80359334815095
C         0.66862402490767    3.24010916548036    1.01927076879150
C         2.73543173802416    0.65082118615271    1.68358270872986
C        -0.80502574254546   -1.60040581869664    4.65223178114862
H        -1.54818317158180    1.47366593844943    5.15825838847272
H        -2.64660018301466    0.72680980689991    4.00870864393059
H        -1.95248272574859    2.31704110799911    3.65658439575089
H         2.62210176368276   -1.79309452276496    4.19026607614520
H         2.70877862954925   -2.15577327248007    2.46680877578661
H         1.47517063732912   -2.92266835602058    3.47259028566321
H         0.35554674814593    3.27655857259424    4.38485404120153
H         0.63345939215672    5.67531342638876    3.99627003893992
H         2.51570419076169    6.68755574890475    0.15485070257408
H         2.82546701301071    9.09373216738279   -0.22079672087823
H         1.49107454471663   10.73063815684854    1.05516787427134
H        -0.16840839546464    9.94125241305529    2.70283933518788
H        -0.49563306545074    7.53681233651933    3.06968090123183
H         0.93768768536373    4.96163330830131   -0.20504589445261
H         0.66101936249924    2.56034255233066    0.18038576213383
H         3.28542550695502   -0.25538235462465    1.44893457273520
H         2.57603821761527    1.21519519754075    0.76877539632788
H         3.33950373391456    1.26319924861180    2.35381259165118
H        -1.88181320809089   -1.45906542657899    4.68364090028381
H        -0.58899553668146   -2.63522074413111    4.40029944652535
H        -0.40980128363584   -1.40747530259202    5.65041410373679
C         4.66041600122544   -5.97944245576400    0.01399822301168
C         3.35999607234752   -6.23302374912512    0.69513804151789
C         3.09244910505878   -7.41255134402278    1.30405534255430
C         1.83969498929459   -7.69386362362379    1.96834588449868
O         1.55354347380376   -8.73114056140207    2.52513309671153
O         0.89859910670668   -6.69828742101942    1.96408663437336
C         1.12646771035696   -5.50890768171158    1.36321008992061
C         0.09173337561917   -4.57812127676663    1.40877075561842
C         0.26687760304063   -3.32811625570446    0.83008423621561
N        -0.75538242884613   -2.37413120555982    0.86273081677554
C        -1.96339791710197   -2.70193993426850    0.53145127435372
C        -2.94240454035831   -1.65939493197378    0.52894541380026
C        -4.28272031280475   -1.87507250365855    0.15240233986060
C        -5.14278698091459   -0.81449529898794    0.12084906964492
C        -4.65491617180836    0.47999667552059    0.39974045713143
C        -5.47389697374417    1.62348768824146    0.32124623510712
C        -4.95672607243471    2.87106717828530    0.54507716319019
C        -3.59314475746028    3.02251992391345    0.84322001493234
C        -2.77475148743779    1.93076207193017    0.95174698367477
C        -3.27964328458742    0.63193268692438    0.75333052251350
N        -2.46981040575637   -0.44985915549639    0.87073581031508
C         1.47803144421959   -3.00815155579740    0.20305856842721
C         2.48454480357723   -3.94114586491716    0.13748202257412
C         2.33885959355972   -5.20953762007666    0.71762494196691
H         5.17131662382049   -5.13566024187192    0.47407493972275
H         4.49542066235275   -5.74488831283774   -1.03605009769068
H         5.30085622366681   -6.85377524561916    0.08066737685717
H         3.81026659411313   -8.21703467087606    1.32349098838178
H        -0.82060117472524   -4.84235639345374    1.91958097907402
H        -2.21258195794758   -3.70290308236281    0.19855651124640
H        -4.60184467820773   -2.87366755354771   -0.09628296140854
H        -6.18265251978919   -0.94493433189563   -0.13630717791577
H        -6.51456305969194    1.49366851254734    0.06666906637182
H        -5.58764033571124    3.74332243303011    0.47788997275328
H        -3.18549937409625    4.01118984767043    0.98400889567514
H        -1.72188212704232    2.05504124546837    1.14403660331520
H         1.58791139833725   -2.03615759058327   -0.25294543382105
H         3.40369344534392   -3.69349196260346   -0.36668348549986
Cl        0.02684125952259    0.12491190069962   -0.76949989200732
