74
 energy: -117.204303591503 gnorm: 0.000934239270 xtb: 6.4.1 (afa7bdf)
Ir       -0.37901695449613   -0.64533085828552    2.31548691620873
C        -2.75021768647089    0.79078102084430    4.34570278698227
C        -1.35478448267621    0.32101132985393    4.12983057531397
C        -0.83718651836829   -0.96992556877262    4.48789832960151
C        -1.61340248963903   -2.04480634445317    5.16992830650728
C         0.59867753328208   -0.92195962042564    4.36085795914712
C         1.54690207842365   -1.93119530758025    4.91195442222039
C         0.95216224064255    0.34752047375869    3.82868849214619
C         2.32361904772888    0.90675239539817    3.67615618283745
C        -0.27000249644651    1.11332457355577    3.66047900737206
C        -0.31423476981638    2.56686281904339    3.39436377127167
C        -0.01003648084736    3.43660178161219    4.43864157897395
C        -0.04435684347173    4.79882296557725    4.20892458625192
F         0.24838497909741    5.63628372951864    5.22544484872383
C        -0.36588065297445    5.33798953033882    2.97568878494269
C        -0.65931395834576    4.44627717811327    1.95990447321527
F        -0.97618646385825    4.93405737384315    0.74290744594398
C        -0.64728004618029    3.07596744142930    2.14501597893906
H        -2.91182072827382    1.75796881147220    3.87602279499829
H        -2.91750725502161    0.90180670752935    5.41788490735039
H        -3.47951295415489    0.07590020626404    3.97106179401595
H        -1.20516544108207   -3.02748918902195    4.95097258644147
H        -1.56460349679748   -1.89166163644402    6.24865975802514
H        -2.65719376746439   -2.02239812400487    4.87093325691931
H         1.78971073211912   -1.65025293308417    5.93766750473802
H         1.10598380509204   -2.92391926235335    4.93755379440999
H         2.47544370692658   -1.95407118646392    4.34817193484234
H         3.05499878123587    0.12325745484246    3.49804435373427
H         2.35952216029969    1.61704830162911    2.85299511600563
H         2.60088133583496    1.43321287255980    4.59078091850273
H         0.24771699706502    3.06532595338399    5.41731824880754
H        -0.38102275980152    6.40279788488014    2.81306279569808
H        -0.85730174870829    2.42289547596823    1.31323469914237
C        -0.90367989168993   -2.68558728768271    0.40840706580515
N        -0.10638548459639   -2.44355068036125    1.39662913776539
C         0.94107466841386   -3.40911240008740    1.66061367683151
C         2.15691518098445   -3.22761352437165    0.73450474333735
C         3.12027514172778   -2.14433353324488    1.22813452850043
C         4.23343467722846   -1.95137326740534    0.23608733165193
C         5.40831633669890   -2.68596302694680    0.33149192078676
C         6.41521203493681   -2.52972232193358   -0.60551077546227
C         6.25671657420987   -1.63687395077365   -1.65218165991863
C         5.08783930007640   -0.90061648945824   -1.75575768946896
C         4.08311680602603   -1.05868041433616   -0.81785597843451
C        -1.95216357131584   -1.74942249394422    0.15207991464453
C        -2.87457253202976   -1.84134474210253   -0.89483282597378
C        -3.84869599050726   -0.87985711657335   -1.02659802717061
C        -3.89734336291177    0.17569486497991   -0.10063778356702
C        -4.90296219121263    1.20155802901671   -0.15487166484647
C        -5.95223538589648    1.41108456708483   -1.02673310936578
C        -6.61303454863242    2.57040995100661   -0.57991909621696
C        -5.93057081831250    2.98899927384545    0.52715182494118
O        -4.90393181537204    2.17619013252919    0.79036985753477
C        -2.92861497598514    0.20279573671529    0.91120971106754
N        -1.99419504028378   -0.72353372340445    1.03936804456789
H        -0.80106525947392   -3.57681752345527   -0.20136378018203
H         0.53265125545117   -4.41211033746190    1.50819954137088
H         1.26099186185307   -3.31180532786511    2.69642954847865
H         2.69093602070838   -4.17678883658143    0.67399267516384
H         1.81286687119240   -2.96913959636400   -0.26782410562985
H         2.57327922091526   -1.20865051331044    1.34524030831188
H         3.53806273147908   -2.44420970958417    2.19066709896112
H         5.54136970594749   -3.38400777075668    1.14605446984506
H         7.32651103583450   -3.10423967207122   -0.51975656469741
H         7.04225067614571   -1.51349587989434   -2.38383652453136
H         4.96183510603407   -0.20035102757615   -2.56933161892788
H         3.17472932977002   -0.47938794549595   -0.89794697098939
H        -2.80438552566347   -2.66173447070578   -1.59056259489375
H        -4.56614514706924   -0.93169361686803   -1.82847985915140
H        -6.21735744049563    0.81888797128602   -1.87830988411111
H        -7.47448459972868    3.03066496592423   -1.01720387637063
H        -6.07995032859950    3.82407198552555    1.18249127814481
H        -2.93826378400885    1.01036909444826    1.62742987432729
Cl        0.66206175527836    0.35415137771740    0.41891992763720
