72
 energy: -97.979881882500 gnorm: 0.000494092533 xtb: 6.4.1 (afa7bdf)
Ir       -0.71118830594780   -0.53438405484102    0.85905355518452
C        -2.42762264977946    1.14469839604391    3.37617784617719
C        -1.18512716129269    0.49997166713745    2.86436186573681
C        -0.87233565139742   -0.89527908509154    3.05074138761759
C        -1.71894368393020   -1.85894526386999    3.81305246555222
C         0.50946598373513   -1.09121876821524    2.68866492579833
C         1.33797709802165   -2.27990889260694    3.03928697748970
C         0.99292755358694    0.13186245984430    2.14915889445473
C         2.39860702308718    0.45433143685946    1.77259088505497
C        -0.06210140719439    1.12395303399040    2.26300308715166
C         0.16385906684086    2.58013907729189    2.02217774369515
H        -2.41989678431238    1.09614961211848    4.46549305882699
H        -3.31812601231584    0.62701500792009    3.02643212227618
H        -2.49206586627837    2.18617227283345    3.07858873136159
H        -2.77483943630327   -1.65806822709833    3.65491505225071
H        -1.51038370766856   -2.88518840014131    3.52353253775710
H        -1.51020351534098   -1.75806010968730    4.87892370104551
H         0.73140866431403   -3.17530172015104    3.14267884553995
H         2.12425909125650   -2.45149567640130    2.30914594595245
H         1.81529022430558   -2.08959197293866    4.00179689897407
H         2.42558549280902    1.01573893391044    0.84077920259736
H         2.99675421882963   -0.44515576842053    1.66116348630507
H         2.84697580628767    1.07225237363111    2.55124962588727
H        -0.73309444921190    3.16389852733913    2.20774583738591
H         0.49560272232686    2.75332323125792    0.99939270503758
H         0.94981818020280    2.93592183917566    2.68853154359021
C         5.38326291235557   -2.13485517358771   -3.25421455097928
C         4.02732597637316   -2.63843664298943   -2.77092110340730
C         4.05355916079128   -2.97367846679901   -1.28054530287287
C         2.75701657941529   -3.60702181596197   -0.77364155358290
C         1.57757707187041   -2.63630354255700   -0.78525931972234
C         0.34315864931792   -3.27026125484578   -0.13444071712609
N        -0.75699197380170   -2.34138346054006   -0.08275916428816
C        -1.84890094314024   -2.62654863058903   -0.70427603141486
C        -2.89084114573913   -1.64562442092356   -0.71266052493464
C        -4.13563933126878   -1.85380625299243   -1.34312688951275
C        -5.05392677837178   -0.84648796749641   -1.35564561157328
C        -4.70765927331581    0.41145724275205   -0.80751870923147
C        -5.56919051685087    1.50952187405576   -0.86168624514348
C        -5.18598254514411    2.75339046896176   -0.38525113624617
O        -6.08662275688483    3.74010827033054   -0.49052944930744
C        -5.77335686064965    5.05351940457749   -0.03881305000321
C        -6.98658206528236    5.93102220412963   -0.30419112625875
C        -3.88541928977940    2.90378874628119    0.14973794996997
C        -3.03873001518498    1.83458337947940    0.24011344557358
C        -3.41873191575977    0.55576701428539   -0.20598063222844
N        -2.57087383545152   -0.49420990542978   -0.10537167030818
H         5.67163861546368   -1.23435914698354   -2.71575334747250
H         5.34876686399605   -1.90133396164747   -4.31616915093810
H         6.15212817778942   -2.88870416632861   -3.09551860156316
H         3.27531501856922   -1.87255673485411   -2.96665571599296
H         3.75379998658965   -3.53138695370098   -3.33795276082715
H         4.26195291291373   -2.06346467752747   -0.71420218621794
H         4.87461669421003   -3.67094849652545   -1.09651713543410
H         2.92089005153828   -3.96210347276944    0.24667448298217
H         2.52139808657156   -4.47735982882971   -1.38946558773484
H         1.84113882609358   -1.72242061339825   -0.25169380350627
H         1.33063616637228   -2.35523509113320   -1.80844817347524
H         0.05326870946719   -4.16339580770850   -0.69733945640558
H         0.59123405380906   -3.56895984747244    0.88587607968025
H        -1.97594362951141   -3.55992288713491   -1.24324811071440
H        -4.33676013542988   -2.81144650395390   -1.79416883723848
H        -6.02804270962721   -0.97812393420222   -1.79976154421510
H        -6.54642301925224    1.40092718225124   -1.30403430064962
H        -5.54829322616660    5.03226111399010    1.03475757893896
H        -4.90258561759159    5.43811825471209   -0.58437735277993
H        -7.20515566561565    5.95416206566141   -1.36816561368529
H        -7.85346578267041    5.53895447733940    0.22021671558776
H        -6.78905943739984    6.94172701557458    0.04014164573445
H        -3.54732478503856    3.87298339248863    0.47873123891676
H        -2.03382448289840    1.96678526042420    0.60347763644022
Cl        0.10088372968425    0.51861836170033   -1.12528323552956
