64
 energy: -97.726291099632 gnorm: 0.000401119649 xtb: 6.4.1 (afa7bdf)
Ir       -0.18836609568877   -1.17979794413072    1.38910046252182
C        -2.27533724253237    0.67025255589878    3.40330093895424
C        -0.97886199299875   -0.02925589806328    3.17656850354678
C        -0.70917411850642   -1.40101626173442    3.53831152243171
C        -1.67162995157155   -2.30993828430481    4.22586566529135
C         0.71271254936979   -1.61400879607475    3.43579636454282
C         1.43295792087769   -2.79394475832140    3.99273011293068
C         1.29271681989050   -0.43571879156831    2.88995640587689
C         2.74319917514224   -0.11162424512999    2.76119172293317
C         0.23735950972161    0.55362995370078    2.73844158384617
C         0.48581679654233    1.98208103122617    2.39457394937997
H        -2.33056506599852    0.96481406488654    4.45214844510272
H        -3.12239134371641    0.02156218042518    3.19483462728238
H        -2.35426693855062    1.57066343445364    2.80030540521959
H        -2.68667065287831   -2.14455777691302    3.87621353426927
H        -1.41274505591152   -3.35291993354284    4.06813832225436
H        -1.64629531766991   -2.11272046930507    5.29824650709867
H         0.84097963727523   -3.70011522757418    3.90184265959287
H         2.39525303487960   -2.94333599891220    3.51386764970805
H         1.60912188149977   -2.61774091566461    5.05473976063893
H         2.96354033352245    0.28286156935586    1.77142752777755
H         3.36576405520684   -0.98192064738989    2.94043763746460
H         3.00271473395676    0.65564430739038    3.49055857546178
H        -0.43894371339143    2.51003236514843    2.18190886966937
H         1.13651363323831    2.05621830274472    1.52602499630160
H         0.98244675151818    2.47406310081295    3.23133442457738
C         5.75576833314552   -2.84980814630488   -2.70422376201644
O         5.03656126390477   -3.36616257366905   -1.58456021507058
C         3.75934669283195   -3.69196139604914   -1.77007831789859
O         3.17770117401819   -3.60138157571326   -2.82362162981645
C         3.13500374197230   -4.15394057747104   -0.47330394026352
C         2.60559111688654   -3.00906216380865    0.41934063918230
C         1.27047271267587   -3.76625883550236    0.56039960414435
N         0.08488870124905   -2.96516872688919    0.42195793890766
C        -0.84304305975309   -3.30536445493329   -0.40751083856069
C        -1.95238947282771   -2.41470759599560   -0.55694818675984
C        -2.99921441331038   -2.59363891470588   -1.46684252823516
C        -3.97122601312866   -1.62763942878822   -1.58068119210668
C        -3.88312572256847   -0.47313895481156   -0.78511818207972
C        -4.84996508434198    0.58909102909927   -0.86347965232902
C        -5.99165216861393    0.73408457047606   -1.62495484598486
C        -6.53666809693963    1.98731713822083   -1.28773494995523
C        -5.69904368689154    2.52079379987904   -0.34942804249834
O        -4.68609026457542    1.69018963692731   -0.08721228861431
C        -2.80895430106204   -0.37626488810373    0.10825080264124
N        -1.88554009271412   -1.31402847941129    0.23240867123901
C         1.70565391852455   -4.70244717573391   -0.58573263943360
H         6.02251741314232   -3.66171025521260   -3.38271178733972
H         5.14394904772284   -2.12305970115807   -3.24081367147978
H         6.64934121747049   -2.38251995616124   -2.29977280285830
H         3.83552711456101   -4.80281429286036    0.04974648996913
H         2.47799807235327   -2.07715652562940   -0.12623241182912
H         3.16640062304500   -2.82621291818932    1.32873639164418
H         1.20602883416160   -4.29479492121866    1.51519564392240
H        -0.79065570825856   -4.21257714921299   -0.99672070115266
H        -3.02308195867864   -3.48191753118433   -2.07701215789648
H        -4.78308609500243   -1.74546816882654   -2.27876633212054
H        -6.39263800977804    0.03846124540394   -2.33240119224948
H        -7.42487746009223    2.43226432371203   -1.68541653914377
H        -5.72460377210861    3.45158791917933    0.18203230258251
H        -2.71421928143102    0.50134243754633    0.72897626514896
H         1.57873871428469   -5.76789841102263   -0.41735497507987
H         1.28827754114941   -4.42413501380978   -1.55167745117194
Cl        0.75774808576951   -0.11089328547308   -0.53880569011747
