78
 energy: -125.599235052075 gnorm: 0.000201032098 xtb: 6.4.1 (afa7bdf)
Ir       -0.44084123199777   -0.60119685104788    1.58751809842612
C        -1.93186528234454    1.19734990181584    4.09824556924798
C        -0.69786229926984    0.60283066345063    3.51444523856982
C        -0.21604124524694   -0.72154187677815    3.79545765391844
C         1.10200843167583   -0.84403072967310    3.22648450657309
C         2.07659025431810   -1.92719608620185    3.53129134060310
C         1.37917035829860    0.34490652470279    2.49627983346921
C         0.25564490641493    1.25296030306733    2.67542926174800
C         0.28832021514893    2.68772601785076    2.34690045891132
C         0.18817399748537    3.62193662460763    3.37718700878675
C         0.28955557829522    4.97207181070068    3.10867207965272
C         0.48814974870047    5.43144737350574    1.80743630553724
C         0.62421267368258    6.86953562638492    1.53168713891803
C         1.56822703538220    7.32658588376899    0.61371876137294
C         1.71302135342440    8.67921861616252    0.36613538481507
C         0.91317727185797    9.59807374530365    1.02601645479002
C        -0.03226357198401    9.15495841718402    1.93665219621517
C        -0.17384053032987    7.80297231899822    2.19057239513753
C         0.56900354993557    4.49334973362554    0.77919000010428
C         0.47363214343398    3.14140133538989    1.04252356120025
C         2.68983255290010    0.71039166738038    1.89293132808510
C        -0.83551459368834   -1.67082494855954    4.76379807577616
H        -1.77848152754025    1.34384414352636    5.16790461089765
H        -2.78684865210111    0.53583870179905    3.97754293274207
H        -2.15839659303520    2.15644323857653    3.64273944340035
H         2.58835361267210   -1.67755834341573    4.46173697325196
H         2.82319030116600   -2.02018677967358    2.74846356483271
H         1.58435452046483   -2.88655344238013    3.66374813266958
H         0.06593543851039    3.28673219161581    4.39550529018265
H         0.24233915788684    5.68065051085995    3.92171795371714
H         2.20853894464315    6.61921378281799    0.10724750608125
H         2.45436168825584    9.01943311837517   -0.34257683021869
H         1.02652246091322   10.65450229321430    0.83136556124616
H        -0.66064668495958    9.86767285319245    2.45126104104620
H        -0.92294843310728    7.46771174286359    2.89304273622689
H         0.69653995250058    4.82747335185972   -0.23936773970486
H         0.52249911070990    2.43086437886032    0.23073451185624
H         3.15034527894200   -0.14370486211919    1.40335835048903
H         2.57438489704768    1.51296118651980    1.17060282564945
H         3.35990072923918    1.05338163469151    2.68259545688251
H        -1.91963788813048   -1.60376530036143    4.73924353694839
H        -0.53517207713794   -2.69340230030948    4.55370824288889
H        -0.50321473448416   -1.42159118994915    5.77220857652548
C         0.31960253510025   -7.27864218297670    2.74188402764497
O         1.49737203566873   -6.78490024030162    2.12829220005996
C         1.48573731294575   -5.55257333842759    1.59018935257095
C         0.40501682616968   -4.67729783964767    1.58923888398114
C         0.51930653203733   -3.40929395686605    1.01250123391994
N        -0.57433406494050   -2.53480453231280    1.00599713113660
C        -1.74908054922828   -2.96017294497471    0.66214881969921
C        -2.80367369861680   -1.99669384305825    0.61257212216211
C        -4.11700944065839   -2.32213238538099    0.21642474367237
C        -5.05253304814649   -1.33176602515391    0.13404109978249
C        -4.66683306083764    0.00558493845780    0.38057566443654
C        -5.56827631115170    1.07607377273823    0.24029601334931
C        -5.14249495741140    2.36598123583453    0.43305849398748
Cl       -6.24278427025114    3.68640315990773    0.24596780075947
C        -3.80148434349847    2.63495013752168    0.76193524209475
C        -2.91455040495316    1.60805474545935    0.92782628121243
C        -3.31605355625202    0.26742890939117    0.76033317231771
N        -2.43222385541169   -0.74534301392369    0.92941152773367
C         1.71406526899595   -2.99674972705153    0.43047664749165
C         2.79040871681541   -3.86644092958502    0.40389649864888
C         2.67364768006976   -5.11469658280811    0.97741180878906
F         3.73333167236751   -5.94814655722762    0.95937045142437
H        -0.50482512739980   -7.33234359340862    2.02712025916336
H         0.57204685507945   -8.28132511965512    3.07955070162543
H         0.03622678202044   -6.66630493997918    3.60128656271182
H        -0.52342665601498   -4.95768000929986    2.06001867691912
H        -1.91703884324308   -3.98357398669785    0.34775352346180
H        -4.35713597193425   -3.34834788088764   -0.00814952531187
H        -6.07372555015023   -1.54617975740670   -0.13955424552650
H        -6.58999252742250    0.86917582971100   -0.03522711068481
H        -3.47960231472496    3.65731270490171    0.87550457033241
H        -1.87912616245629    1.81924697270756    1.14071444640934
H         1.77342961347251   -2.02364615894259   -0.03017232201223
H         3.72366999518392   -3.58800331241800   -0.05799426201703
Cl        0.05068407017623   -0.02431653047205   -0.67371082142354
