75
 energy: -117.959087027190 gnorm: 0.000700265312 xtb: 6.4.1 (afa7bdf)
Ir        1.27305387629374   -0.43325564752904    1.53545913442684
C        -0.85628529851384    1.00104734804201    3.68230401064573
C         0.47047284606558    0.40345897240327    3.38627301412896
C         0.84286089816235   -0.95901692874249    3.70411017297402
C         2.23383335324973   -1.09524525879296    3.47716370147604
C         3.09740686224474   -2.25694682656285    3.79410966741483
C         2.75187389947191    0.18886279214705    3.02610292480049
C         1.67547164777953    1.13336145900849    3.02309917085838
C         1.79079277827114    2.58295176687387    2.84818239822986
C         2.74443619080428    3.28602462962255    3.58573438476259
C         2.84949074951729    4.65637307607801    3.46493459448007
C         2.02465896874811    5.36465632974108    2.59164199416480
C         2.15555081105179    6.82223553753582    2.45407923807718
C         2.09762357817551    7.42529654784771    1.19905169435864
C         2.23357801950558    8.79541603788369    1.07079174091658
C         2.41940120653263    9.58539747776721    2.19385069642142
C         2.47227319559401    8.99640268710038    3.44687243194856
C         2.34598954927892    7.62563866074691    3.57684976086583
C         1.08030733638930    4.65647339655940    1.84901016681253
C         0.95770950869360    3.28870171467454    1.98094094281201
C         4.18225762867431    0.45183079187506    2.73915553119510
C        -0.05910244788039   -1.94473235523855    4.36052683452349
H        -0.97626651731255    1.04466235535497    4.76639454743073
H        -1.66720908852494    0.39038162516524    3.29029145839455
H        -0.93283800602736    2.01014765125177    3.28873991994160
H         3.68144150379538   -2.02067807988206    4.68445469127893
H         3.80039515568074   -2.45133101245005    2.98571560006706
H         2.51145007354813   -3.14866002660916    3.98925690042631
H         3.38588547311104    2.75790875383075    4.27348131026953
H         3.59620216962751    5.18590137139806    4.03695593980259
H         1.97095373826608    6.81437583301554    0.31724967585449
H         2.19641678026302    9.24989472676128    0.09137302191571
H         2.52348445127490   10.65561004907401    2.09290864148873
H         2.61286813880815    9.60888232838707    4.32550397760388
H         2.37357915877058    7.17563356422806    4.55828906894171
H         0.42953734397507    5.18780380390753    1.17139308247055
H         0.24416737185091    2.75278337978178    1.37356884789323
H         4.59442587881914   -0.33801156148682    2.11151399255829
H         4.31313148897681    1.41087818750761    2.24546519048723
H         4.74711813328819    0.45026414169476    3.67219415760228
H        -1.07635117294200   -1.85432187843155    3.99127075188932
H         0.28692705285836   -2.96137716566336    4.20406906628773
H        -0.06905131129208   -1.74765716068193    5.43318068795104
C        -5.38861132177572    3.91522666817153   -1.63911602562183
O        -4.27549363535486    3.25465582094805   -1.06218067636066
C        -4.26375987501971    1.91102752241289   -1.02246634428059
C        -5.26715350357211    1.06971684690734   -1.50343982453643
C        -5.09163664267024   -0.30478577474469   -1.38089848480845
N        -4.03716595754396   -0.87325050766505   -0.84116214482033
C        -3.06984168798710   -0.07576558225557   -0.37790438184029
C        -1.89631689496426   -0.69986874756256    0.20336236851586
N        -1.70968094137275   -1.94574329962486    0.25040650543216
C        -0.57243872877053   -2.54881288376636    0.65991538439133
C        -0.63220965917454   -3.65188635599839    1.52471450293109
C         0.51499304422207   -4.33275398482314    1.87109045087792
C         1.75903329711270   -3.93893735430113    1.38244966164297
C         1.84594402607667   -2.87963383053197    0.49197483186556
C         3.17254468496934   -2.55273586178826   -0.12067706407640
O         4.19473689741653   -2.49894886265436    0.52414676941103
O         3.10404595026363   -2.34535001367578   -1.42250459817597
C         0.68868167477307   -2.14419579212698    0.12250873225550
C        -3.14024755530029    1.31173350879327   -0.44057293551912
H        -5.50753740073625    3.64342929215316   -2.69098034903082
H        -6.30765216533236    3.69104751904967   -1.09153799786222
H        -5.16736448232062    4.97762442926242   -1.56064651033988
H        -6.16277420500610    1.45474196426924   -1.96120052907949
H        -5.85306752111752   -0.98262004649344   -1.74134323282437
H        -1.13671781175737   -0.00817964696403    0.63809357492494
H        -1.59703922385264   -3.96508532562680    1.88978327636960
H         0.44973234296087   -5.19722283893882    2.51367934665398
H         2.65131258930869   -4.48574263553145    1.64356928087786
H         3.97440616129293   -2.16345622880989   -1.82337795018095
H         0.69754152347011   -1.61363113703122   -0.82902734688603
H        -2.34557232731285    1.93632622750626   -0.06656017805946
Cl        1.60756137434310    0.76891481653554   -0.35969884875001
