64
 energy: -102.498151955198 gnorm: 0.000904554040 xtb: 6.4.1 (afa7bdf)
Ir        0.51075999631142    0.13183895794295    1.34692696231269
C        -2.44527693460223    0.73825970806780    3.11787075686698
C        -1.00485168505770    0.37392796442369    3.05544166247469
C        -0.44574328652165   -0.93019205166112    3.11601877870332
C        -1.15806814393557   -2.22619062591562    3.14635538200184
C         0.99933445615165   -0.79774681375712    3.27456833273561
C         1.92324446334535   -1.92785065018775    3.52406710443055
C         1.31942598106661    0.59736696755046    3.32014357428048
C         2.63052011749726    1.18911266095630    3.69358710789156
C         0.07712324384307    1.32800874408905    3.13977535005759
C        -0.08306142193699    2.79638506479418    3.25860743323235
H        -2.66928011709150    1.08783973141952    4.12653621154354
H        -3.08462828907625   -0.11053153527961    2.90011407658215
H        -2.68898116785573    1.54648589542699    2.43206867396424
H        -2.23177590620330   -2.08314922412741    3.19039447295688
H        -0.91480995755010   -2.80765706688421    2.25276198565495
H        -0.83343478675970   -2.79531147062173    4.01554837432292
H         1.64930765505206   -2.79333106406437    2.92658248699339
H         2.95171083886714   -1.65192405813885    3.31061900601676
H         1.85787144715239   -2.20660218778429    4.57720003243079
H         2.72630178247140    2.20481995415950    3.32208452531829
H         3.45468912699494    0.59587962170317    3.30755974549997
H         2.70603687721018    1.21208578616768    4.78138364056983
H        -0.99553948055453    3.13920749841006    2.77915897443854
H         0.76873099823427    3.32662872565439    2.83954005224726
H        -0.14204404915799    3.05106500803375    4.31903507689623
C        -4.19108431676007   -2.98591203638969    0.85976398963036
S        -4.55189941817466   -1.21798749969576    0.64091001008214
C        -3.00655314623330   -0.60059570040610    0.16755809707402
N        -1.96698579863358   -1.40677491453875    0.18573851139855
C        -0.76668645464669   -0.99737349316519   -0.23818638123719
C         0.27035998446511   -2.02878688762403   -0.35768303574143
N         0.18770730337494   -3.10164849944931    0.32563427901044
C         1.02757797768680   -4.17958762045948    0.17925717174758
C         1.15280004854889   -5.04503533040420    1.28109441243691
C         1.94587118946437   -6.16142139675620    1.20717845329753
C         2.62901942667575   -6.48655959151117    0.02510327720639
C         3.46942513003115   -7.65007059706688   -0.13050613768839
C         3.67358779257235   -8.58697539241421    1.01054005186028
C         4.05777422779403   -7.85498110357455   -1.33358856458128
C         3.88029131554960   -6.96719212919935   -2.46059834613591
O         4.38594865457666   -7.11255305673467   -3.55467651828382
O         3.07740828511422   -5.87896709251988   -2.27429940147885
C         2.47357599873042   -5.63577360380889   -1.08465340036296
C         1.68671548193155   -4.49355814865173   -1.00832296967243
C        -0.55891470877925    0.33059382062527   -0.72298589054732
C        -1.66188185364359    1.20367943977654   -0.70109456660512
C        -2.88877263494055    0.76403245305656   -0.23671618673227
C        -4.00754797954119    1.62451521221061   -0.22282024368321
N        -4.90312708404518    2.34060610722246   -0.20001097869497
H        -4.58724460292350   -3.52167264138307    0.00317024705779
H        -3.11464421362730   -3.09989216154251    0.92242543564272
H        -4.69084285284973   -3.30971736037660    1.76606671070360
H         1.06521245241567   -1.82334945150413   -1.08163157329617
H         0.61401652344535   -4.81970112566250    2.18689085406276
H         2.03779752706947   -6.80929410446293    2.06307598677664
H         2.71987657979412   -8.99857918961318    1.33505641162854
H         4.32615356000084   -9.40396197505633    0.71780749632261
H         4.12324590699303   -8.06334068618872    1.85222181893477
H         4.69699838700695   -8.70379606861190   -1.51768843965501
H         1.57939859088841   -3.88917856783331   -1.89480601586607
H         0.28357368933864    0.57363606722630   -1.36179917519075
H        -1.56344471975645    2.20867087665146   -1.08560115139733
Cl        2.42839199316049    0.40185590945243    0.14481898156040
