67
 energy: -108.117014816110 gnorm: 0.000673833985 xtb: 6.4.1 (afa7bdf)
Ir       -0.55745908068953   -0.92246321974286    1.38167445017599
C        -2.10520759589927    1.05202965834238    3.72909762592859
C        -0.88055801682818    0.37885122756885    3.21290959513141
C        -0.50881172958737   -0.95755601014943    3.60949467857801
C        -1.26001337492138   -1.79952609405474    4.58192985286229
C         0.83204732703523   -1.20400294745337    3.15123126089197
C         1.68004436597754   -2.35422507735469    3.56761054586100
C         1.23960421173627   -0.08091735350569    2.37759801070546
C         2.60174681243186    0.15214856856900    1.81948090208652
C         0.17125647717298    0.91391438801739    2.41391190061204
C         0.36296459155830    2.32576978287108    1.92997076331459
C        -0.73972203623611    2.84963140784142    1.00285756430929
C        -0.37577760439011    4.24804753158556    0.51055708833147
C        -0.18948399750247    5.19911346439077    1.69043956573555
C         0.88850926979673    4.67413139427358    2.63513592827564
C         0.53741443420098    3.27325928355750    3.12877655122695
H        -2.97379959961163    0.40080248078856    3.65707171913008
H        -2.31235013602381    1.98279705035376    3.21392968633506
H        -1.95114118075744    1.27433281116781    4.78610829761641
H        -1.00009802878208   -2.84879196290409    4.47698381125951
H        -1.00204435621292   -1.48807882593609    5.59494594326871
H        -2.33321311573667   -1.68535821899797    4.45855618978370
H         1.08913062332170   -3.25372400299166    3.71621479784553
H         2.45832593655057   -2.56452922623815    2.84010442361425
H         2.15903972548783   -2.10368935438083    4.51485802771322
H         3.18949363675344   -0.76056385714258    1.83014710393516
H         2.54582387182367    0.52064079420410    0.79714333869321
H         3.11569152343155    0.90062731807357    2.42252774221294
H         1.29180716795326    2.34802872764282    1.35243523871219
H        -1.69384977318619    2.90898723963751    1.52655335065247
H        -0.84728155198237    2.17301153495769    0.15354396300477
H        -1.16209579815341    4.62297370551976   -0.14747506441490
H         0.54806810981163    4.20396553790407   -0.07047040667857
H        -1.13303209150595    5.29745435798063    2.23260938600121
H         0.08694647081284    6.19074560594015    1.32690896888654
H         0.99537666477515    5.34630220926348    3.48889303566304
H         1.84640445218750    4.64922929679790    2.11054848008017
H        -0.38523107297111    3.31625007113869    3.70754489646737
H         1.32859065598424    2.90113853808392    3.78208399481049
F         4.73131574148651   -6.13782032066377    0.22217411765247
C         3.71211515803902   -6.42331965980304    1.04664542199350
F         3.36629692047604   -7.69861484192173    0.80252898212584
F         4.22902192038554   -6.41252369455207    2.29558550047829
C         2.55727980013356   -5.47080546932322    0.91261487854801
C         1.29379625027327   -5.87252434346153    1.33237648151900
C         0.22982409347428   -4.99632330602929    1.23318805240747
C         0.43256910840013   -3.71038909533366    0.73284206552941
N        -0.63614039005447   -2.80715339614094    0.63700073199766
C        -1.71381506104166   -3.14759568552054   -0.00014088265676
C        -2.75171081080399   -2.16816264822787   -0.07738368136359
C        -3.94155630332431   -2.32545579756647   -0.79523654664625
C        -4.84938382728668   -1.28881411974632   -0.83909873827006
C        -4.53195081865866   -0.11055758351371   -0.16241187654414
Br       -5.72414569449616    1.37040314240429   -0.17176309199884
C        -3.33642060459716   -0.01349943319872    0.53665338575327
N        -2.46927613074816   -1.01653334606567    0.58737370490418
C         1.70425081756046   -3.30889587913256    0.32609826534546
C         2.76412253671433   -4.19161397885637    0.40749695673378
H         1.14621049249481   -6.86761552779250    1.72343700769355
H        -0.75187802240395   -5.29833181676961    1.56182139332880
H        -1.80626288240766   -4.10799845530466   -0.49355877345003
H        -4.13252932926881   -3.25001244961770   -1.31603141256279
H        -5.77617117830458   -1.37762035405549   -1.38391145822675
H        -3.07916843071595    0.89577449178494    1.05847114200505
H         1.83952468114155   -2.31786229098751   -0.07912369127188
H         3.74684245809072   -3.89458882856046    0.07663798509712
Cl        0.08085331761553   -0.25814314767656   -0.82136212874617
