61
 energy: -102.362455874582 gnorm: 0.000598385582 xtb: 6.4.1 (afa7bdf)
Ir       -0.48224652349022   -1.06874911678304    0.86983847379041
C        -1.35313462907748    1.67604924799732    2.94062845286414
C        -0.36481119100311    0.74506978872429    2.33518091049786
C         0.07384699608870   -0.47837167580202    2.97110234699300
C        -0.42265755334980   -1.00243051006776    4.27246820688668
C         1.25158537187514   -0.93270533168862    2.29599479567574
C         2.17939675182816   -1.97385424531582    2.81217599013347
C         1.45238624833414   -0.09000717430593    1.15256588715083
C         2.63680869902234   -0.08244157283958    0.25057978103841
C         0.44936332080096    0.96656410284701    1.19584898880203
C         0.46807642797152    2.16682777125866    0.31328314851613
H        -0.92325217248283    2.06815451525200    3.86314567100367
H        -2.27994807642829    1.17003461833623    3.19973720645085
H        -1.57827986814926    2.50834967478878    2.28266069670117
H        -1.40230838495068   -0.60018360069374    4.50981366015139
H        -0.48472927621124   -2.08811210205237    4.25107131537270
H         0.27064380893327   -0.71841011759202    5.06411846301178
H         1.63696776755460   -2.74058826747294    3.35780088578156
H         2.75104441090585   -2.43825192706509    2.01417770252214
H         2.87881408399451   -1.49768642356297    3.50066908869767
H         2.33511262845123    0.10627609572754   -0.77701700818094
H         3.17330593763311   -1.02488041019798    0.29759984988278
H         3.30894396650165    0.71998318152840    0.55531059697941
H        -0.46142558200465    2.72362954269355    0.38041760994159
H         0.62254451083908    1.87556562019349   -0.72297399321110
H         1.29150599047070    2.81653286211681    0.60977175327201
C        -1.07698059108738   -6.69858901841727    4.29903498217468
O        -0.24988770676362   -6.38431130114824    3.17741568544700
C        -0.17198596792911   -5.11764000264140    2.80096541253175
O        -0.77236257708045   -4.20637952038329    3.32970111878190
C         0.77001755907328   -4.93016989964997    1.66078787082983
C         1.89440534787256   -5.72917149072547    1.56612399645173
C         2.86148226270808   -5.51023787932581    0.57585742197833
O         3.89668686901182   -6.36142206980196    0.56860282449643
C         4.92330148510319   -6.20053025161807   -0.39686134293872
C         2.69219489830383   -4.43631111489155   -0.30386395688135
C         1.57857687787684   -3.62724555915990   -0.20518471392654
C         0.59617851613010   -3.86571570398748    0.75401212340697
N        -0.55405929022007   -3.07452183640948    0.74184824128810
C        -1.71624114471460   -3.64285208254141    0.66553227037463
C        -2.85427742877167   -2.79452940383357    0.53602315297677
N        -2.59366699552071   -1.46422657175274    0.57567141024002
C        -3.58014850812317   -0.62751100743649    0.26370939733426
Br       -3.17169006342127    1.19525234006774    0.14061838656857
C        -4.88030149182080   -1.03112800462071   -0.00387625571564
C        -5.18243345458292   -2.38622286206174    0.01393764338852
C        -4.14778357987650   -3.26376955828688    0.26685968983418
F        -4.35669733298183   -4.58495301171527    0.24415222100742
H        -0.49110367199164   -6.61781477525138    5.21558376542540
H        -1.92369115816830   -6.01222244743741    4.34827780796500
H        -1.41309776876792   -7.72217584073083    4.15566673363745
H         2.04607996859363   -6.53535520071215    2.26484265683405
H         5.41758835129880   -5.23213834380132   -0.29009290388561
H         4.53176636212999   -6.31063889771995   -1.41104502351238
H         5.63704210872024   -6.99627664303565   -0.19503674233226
H         3.41733449185946   -4.23088024619270   -1.07400135613735
H         1.43156589849874   -2.81584814340201   -0.90165677802139
H        -1.83018732633412   -4.71969761009231    0.61050259592381
H        -5.63766411795429   -0.29635482770342   -0.22494786945658
H        -6.17800292145033   -2.74951284151469   -0.18528869135639
Cl       -0.50076656365925   -0.92495891808525   -1.51245025547009
