76
 energy: -122.762338268975 gnorm: 0.000429404307 xtb: 6.4.1 (afa7bdf)
Ir       -0.55979118405193   -0.40964554856800    1.38413438361468
C        -1.90570096073304    1.31780029292323    3.99243214160160
C        -0.71492144487223    0.67560921425321    3.36885714898806
C        -0.29632777278016   -0.68218234994014    3.57972372425901
C         0.99878193364160   -0.84523548177232    2.97050523686942
C         1.91089737971449   -2.00051411601677    3.19225864383868
C         1.32528848621591    0.36213334145853    2.29103403349383
C         0.25333665358276    1.31827771659119    2.53916379679371
C         0.34225386135304    2.76497054674081    2.28120444378660
C         0.33145600904996    3.64518926741065    3.36308960538431
C         0.47644559751193    5.00280224991709    3.16101087503541
C         0.63410836865809    5.52259844203118    1.87692552376432
C         0.81010201531074    6.96753892761710    1.66716528165295
C         1.73223092410376    7.43822227043721    0.73414899535662
C         1.91153956295106    8.79603876743737    0.54423120461546
C         1.16820487163989    9.70657108492942    1.27769554563934
C         0.24476282650052    9.24997405205859    2.20406350873718
C         0.06888114208101    7.89239683889720    2.40024604333138
C         0.63272221468638    4.63840561968655    0.79903242386871
C         0.48926061422269    3.27916660798624    0.99563248792617
C         2.64002079714007    0.69130834316279    1.67522262112692
C        -0.94037066129511   -1.65274012444992    4.50931507560629
H        -1.72145747510478    1.44168602899515    5.06009592061165
H        -2.79402790203500    0.69888617467972    3.88424272629075
H        -2.08423918550198    2.29919575244739    3.56075297327368
H         2.43159817624744   -1.85079593552923    4.13872816988628
H         2.65315467006510   -2.07391954820997    2.40357958453853
H         1.36332584899689   -2.93718761960917    3.25364289083602
H         0.24089234022828    3.25991833380351    4.36706310346134
H         0.49410701035985    5.66834752891198    4.01087567964888
H         2.32840969900849    6.73594008804032    0.16987762750100
H         2.63573363164950    9.14674331462865   -0.17698991180237
H         1.30846218303714   10.76709453390549    1.12779299758079
H        -0.34026808932924    9.95646061300889    2.77521577319422
H        -0.66360321381435    7.54698722356036    3.11508677085429
H         0.72964356431884    5.02233311556496   -0.20538248561561
H         0.46706519490036    2.60990329061642    0.14926662778997
H         3.06205136232695   -0.16765223233476    1.15964047745822
H         2.54231692762187    1.51383404124110    0.97263605284001
H         3.33273002377734    0.99170985389941    2.46246141002025
H        -2.00797351432165   -1.47074018696622    4.59139941852681
H        -0.78181794478403   -2.67622857254309    4.17955780478565
H        -0.49832951696939   -1.54715274752410    5.50069227437333
C         4.79167694522916   -4.19373997657554   -0.52853373198602
O         3.68993233374422   -3.30891091910194   -0.41690426944440
C         2.50959289966238   -3.78205365980324    0.02737737894918
C         2.27422402878181   -5.09392377172566    0.44311392931017
C         1.02029018445231   -5.46286517969696    0.90022154246693
C        -0.00329937386542   -4.53992097870557    0.93092098167526
F        -1.21904860092437   -4.90520972032919    1.40423752922969
C         0.20367591648274   -3.21781317064544    0.52271180314085
N        -0.81849629616139   -2.26227488737771    0.56904735325789
C        -1.98269120560407   -2.51848928191274    0.06687109691758
C        -2.96164087931170   -1.47864717013916    0.14091377255534
C        -4.23842785512177   -1.56145778002289   -0.42466446097835
C        -5.06570060442294   -0.46660211814557   -0.35634254314584
Br       -6.81281239614593   -0.49168737294125   -1.09635079830854
C        -4.61779824955317    0.72135676970927    0.26728213830727
O        -5.45775020146995    1.74490477891839    0.28583844721701
C        -5.06726127212952    2.98080007036328    0.86860647892115
C        -3.33329614419690    0.70671826221759    0.81928159979234
N        -2.53846810714314   -0.35696250425443    0.76678294502739
C         1.46746075608208   -2.85330449173654    0.08089786226422
H         5.60661008748714   -3.59029604068715   -0.92235179117283
H         4.57614912304825   -5.01028294157879   -1.22163637840193
H         5.07466541856939   -4.59799092593054    0.44639031489727
H         3.05568699784732   -5.83431023358840    0.41831322291048
H         0.82910626759381   -6.47082431211816    1.23117332415071
H        -2.20572075707295   -3.45299600604939   -0.43461991182185
H        -4.55800059769483   -2.46860668680046   -0.91132040847590
H        -4.86574066940869    2.86179529853441    1.93464316090758
H        -4.19468028591735    3.39313362899855    0.35919944101516
H        -5.91965532712762    3.64198461793278    0.72953963109618
H        -2.93161550226259    1.58265033637168    1.30545431626014
H         1.63877518960815   -1.84466572770246   -0.26103164514325
Cl       -0.12499184835293    0.28764808115163   -0.85834096273671
