70
 energy: -113.840667154142 gnorm: 0.000520112563 xtb: 6.4.1 (afa7bdf)
Ir       -0.48941356292794   -1.00609161848873    1.82209558403947
C        -2.71311039559022    0.74912558755588    3.81421655035334
C        -1.37686678902162    0.11957603205344    3.63108086286295
C        -1.06500667734378   -1.24388251183479    3.96306095582330
C        -2.01075795860936   -2.20230600553541    4.60397636919957
C         0.36679880142726   -1.40157140448142    3.89679738130028
C         1.11232653891809   -2.53393978269327    4.51286936039323
C         0.91717283787453   -0.20150316231056    3.37066207137217
C         2.36085001263958    0.15573329035052    3.28481689325701
C        -0.17488127948465    0.75252259452565    3.21031901842260
C         0.01823449189013    2.19803983372547    3.00011089643316
C        -0.38331790275594    3.08089805458102    4.00148219932400
C        -0.16105503292944    4.43417506480129    3.83184565941903
F        -0.54836703789522    5.28071618402734    4.80840200548261
C         0.44021274366653    4.95549688080633    2.70010432927813
C         0.82328113079826    4.05287638819284    1.72330555026165
F         1.40715041118223    4.52524357824593    0.60312415289879
C         0.62816446737633    2.69083017734083    1.84922101927040
H        -2.73681592880463    1.75454835388606    3.40513811442634
H        -2.93209923302538    0.79839254880888    4.88146256104218
H        -3.49762460291975    0.15821973605102    3.34679088784958
H        -1.71663859708726   -3.23116976444286    4.41819961549587
H        -2.00762611411741   -2.04002693352200    5.68244905401623
H        -3.02392386435029   -2.05164956536486    4.24277873107913
H         1.11688316966289   -2.38299081935469    5.59346064717056
H         0.63219989878869   -3.48802016280782    4.31676033895475
H         2.14249316173468   -2.56769035110994    4.17613332655460
H         2.98402341733928   -0.72917921543653    3.20163679722974
H         2.55234678405546    0.79881859259570    2.43054326258077
H         2.64600476777054    0.69888949053259    4.18654090447199
H        -0.83929545851457    2.72678481768485    4.91141954595982
H         0.60418861229426    6.01394876547063    2.58532420410027
H         0.92461446176864    2.02873149912748    1.04993172545218
C         5.00356766868769   -2.26746994112626   -2.02744135057142
O         4.36650723614978   -2.94571651342926   -0.94606433104703
C         3.16003554308577   -3.45971460881631   -1.17295218071468
O         2.58164106558433   -3.40495882321719   -2.23016222438818
C         2.61360941342073   -4.10220442792705    0.08427812836729
C         2.16546242818004   -3.09444241351858    1.16556254195975
C         0.77487428602995   -3.75460854956554    1.18966207615110
N        -0.35296294371647   -2.87088120642506    1.03448941727534
C        -1.36123831361621   -3.26110142888535    0.33202431084293
C        -2.40792292227814   -2.31310197386177    0.08532472829130
C        -3.55570534922578   -2.61677776445703   -0.67075024159740
C        -4.46561038636529   -1.62779971155512   -0.91998585191598
C        -4.19647953156926   -0.31366703097852   -0.48283735183835
C        -5.05351955416928    0.76594289227121   -0.77519718954068
C        -4.72963547968551    2.03904000037799   -0.39111686895899
C        -3.52445048426593    2.28341089879295    0.28676841263824
C        -2.68190048859600    1.25445917206480    0.61141473650759
C        -3.00026507369380   -0.07053223271453    0.25799436517643
N        -2.17194360809355   -1.09274368839935    0.58660955195193
C         1.17389835007453   -4.62167289732195   -0.02497489452178
H         4.33509040050892   -1.51228855738659   -2.44371472202070
H         5.26874875551204   -2.97741519445659   -2.81251326255118
H         5.89467476811046   -1.80766213182122   -1.61001715264957
H         3.34024466377307   -4.82682128506835    0.44981169236127
H         2.13542613801914   -2.06895851371557    0.80521316302102
H         2.72919435580664   -3.14470404908014    2.09004003988356
H         0.61346196199167   -4.35049053869832    2.09202203943612
H        -1.40453285953657   -4.24961707935059   -0.10990084508465
H        -3.69759065658268   -3.62263542907794   -1.02997706328106
H        -5.37275135408302   -1.82708820265519   -1.46936515432784
H        -5.96159544148155    0.56851531578922   -1.32368545723137
H        -5.38594709415816    2.86281977728196   -0.62345902375418
H        -3.25984251238676    3.29623544880172    0.54775211633471
H        -1.73908929079487    1.44880998354455    1.09646366300023
H         0.72298196628855   -4.29068772520430   -0.95955084985449
H         1.04289782621492   -5.69383149438666    0.09038389505236
Cl        0.64819024304372   -0.20329124881197   -0.12493343818907
