83
 energy: -116.880880621698 gnorm: 0.000286464524 xtb: 6.4.1 (afa7bdf)
Ir       -1.05318194639893   -0.75864235943410    1.62037565844529
C        -1.46408646596792    1.15026411313627    3.90580234375910
C        -0.31352356657531    0.71626620838001    3.02812531943125
C         0.31925822478052   -0.60244538743210    3.21697422860013
C        -0.20180954166056   -1.60314966733507    4.22127199100393
C         1.72618979809983   -0.43085644997056    2.92745708626450
C         2.76675091398386   -1.48240967846631    3.01871297811262
C         1.94529716534974    0.88630759735924    2.53534127968762
C         3.25101306461341    1.45037884152763    2.09159119168700
C         0.72441295956960    1.59644628969331    2.57319722081918
C         0.59504981298286    3.01711707215936    2.14478348776689
C        -0.60189228231704    3.26256862560619    1.21962692106044
C        -0.60441343640692    4.71281385281734    0.74734729097738
C        -0.67122098661297    5.66156311387603    1.94125389214126
C         0.50127728797932    5.41229902945138    2.88599451626335
C         0.51269999470327    3.96166355165199    3.35855848165512
H        -2.19899471641621    0.35590945485997    4.03624343564202
H        -1.97178191434543    2.02505582209699    3.51214593855004
H        -1.07534976418257    1.39873275730305    4.89519325614701
H         0.40385790849522   -2.50495187901691    4.22119249687786
H        -0.17078247182540   -1.17190697626219    5.22259208002161
H        -1.24437111080350   -1.87806089805568    4.01920315138516
H         2.34199815977703   -2.45177620548729    3.25608928839961
H         3.32011292781511   -1.56025190720843    2.08385853435023
H         3.48301605729942   -1.21849193127589    3.79759907311624
H         4.06166883764825    0.76310419439838    2.31112987552425
H         3.23585917985076    1.63105713517402    1.01686483168051
H         3.45198388889866    2.39561762582233    2.59216562670861
H         1.49922550076852    3.28127421945091    1.58785867265575
H        -1.53325234321521    3.05824537187107    1.74651795206841
H        -0.53684466077694    2.58600484971012    0.36636640321126
H        -1.45664267931128    4.88785014276444    0.08787556502735
H         0.30337192364124    4.91426917418314    0.17417873315389
H        -1.60868511247380    5.50254152829263    2.47955037267998
H        -0.65578408454460    6.69779960778916    1.59726197400462
H         0.43122419399939    6.07735368557079    3.74957970524940
H         1.43718416134649    5.63707156882487    2.36907760335337
H        -0.39645009252115    3.75908972988133    3.92442698872086
H         1.36668294944519    3.78906779651896    4.01637113969083
C         4.41745726800731   -4.71023090206940    1.24685673753046
C         3.32386532311667   -4.70089278409540    0.50795235069255
C         1.93152611212427   -4.80950454446483    1.04850478253068
C         1.06545067318907   -3.64389993311043    0.56652557996183
C        -0.36603952264890   -3.74958395603564    1.11110829972486
N        -1.13484877523790   -2.59835264530231    0.71097636344732
C        -1.64890187275259   -2.56689699128064   -0.46564628737089
C        -2.42439621282261   -1.41131151176812   -0.83767781470026
C        -2.94785735173658   -1.20546560211751   -2.10997210161378
C        -3.71081372854695   -0.07168009846721   -2.33606650416882
C        -3.99192130976151    0.76841365017642   -1.27150951475184
C        -3.46259697314442    0.48541399145501   -0.01162099617416
C        -3.90268498171700    1.24445380127826    1.16620099335205
C        -4.04052605359061    2.63172237686465    1.14077246908830
C        -4.56131330610452    3.30151621642261    2.23104891339646
C        -4.97226359262900    2.58935212177767    3.35693166965235
C        -5.57986051293687    3.26098624275497    4.53531524140211
O        -5.93215558946423    2.67738688571188    5.53718252302101
O        -5.70119985912546    4.57949917440433    4.36909041835398
C        -6.28914079733851    5.31238007000145    5.44020237820297
C        -4.83307186134275    1.20303737803885    3.38582234517752
C        -4.29359544846403    0.53645196544911    2.30364482265672
N        -2.64642865047433   -0.55208683368899    0.18143863965644
H         4.37898612095998   -4.79987491379044    2.32033920317547
H         5.40009913718392   -4.64014335678766    0.81226953011214
H         3.39582238380636   -4.61276754243737   -0.56821166416052
H         1.96210127855006   -4.83703226730616    2.13871921513392
H         1.49260504047618   -5.74955115013016    0.70091478708456
H         1.49747552683658   -2.69586731455486    0.88664207198750
H         1.03341607898929   -3.63806099587760   -0.52397413330177
H        -0.83399695113548   -4.66342754022512    0.73131929224784
H        -0.34196592196283   -3.79064835928942    2.20074844750316
H        -1.55603529014110   -3.39647614227639   -1.15979985177949
H        -2.74053667875856   -1.90985786711189   -2.89859801291369
H        -4.10567523108959    0.13833983088251   -3.31761049981000
H        -4.63803016761964    1.62235205248914   -1.39434569788965
H        -3.72557889816924    3.18517354520996    0.26992384737277
H        -4.66222383674337    4.37469315150185    2.21529030209903
H        -5.68362730317609    5.21264063819306    6.34286202004786
H        -6.32357171042331    6.34711674845514    5.11120596018793
H        -7.29352530209752    4.93837488899834    5.64697221489465
H        -5.16321640648228    0.67063364727208    4.26479722841186
H        -4.21592644433895   -0.54156843078285    2.31335238066913
Cl        0.34086186367910   -0.06769931479026   -0.07006353607249
