72
 energy: -119.387938765032 gnorm: 0.000482269631 xtb: 6.4.1 (afa7bdf)
Ir       -1.28251089631524   -1.10528331781290    1.72195035044157
C        -1.39673060898248    0.76018943389319    3.91465255888769
C        -0.31517822410313    0.33061236533237    2.95186439174415
C         0.32724016064821   -0.98888468639553    3.08998628422491
C        -0.02201036649622   -1.95547127652642    4.19667445081500
C         1.66074466580609   -0.85087718051319    2.56962499262532
C         2.65274837433017   -1.94045753133858    2.45791379106496
C         1.84837154529334    0.47171931991822    2.13816029304505
C         3.08792295453356    0.99078768443920    1.49667010618948
C         0.66372709939393    1.19637142694042    2.33226946075427
C         0.47105233931370    2.60051549484316    1.87513884949661
C        -0.86314818269493    2.83603175232855    1.15676114930252
C        -0.91704734334652    4.26715542435060    0.63028598565706
C        -0.76509975993827    5.26372284975861    1.77759355492097
C         0.54219167136293    5.02121926239290    2.52759189069858
C         0.61064476903593    3.58903459513376    3.04956374027803
H        -2.22783617607820    0.04360504058942    3.93015237357105
H        -1.78575604731522    1.74229031442723    3.66968186452598
H        -0.98583011485424    0.79543487995011    4.92456574485376
H         0.45972704558081   -2.91653963973492    4.04057838281359
H         0.32401780889643   -1.55514214834963    5.14998880547278
H        -1.09999556308108   -2.11281096408326    4.28242181958843
H         2.22065164130060   -2.90189416865117    2.71809364503601
H         3.04241348357566   -1.99516579824495    1.44185868578110
H         3.49815146339518   -1.74348923784729    3.11816688514403
H         2.94958134621798    1.06637773507326    0.41812528418505
H         3.33613445521176    1.97880868249159    1.87739534867664
H         3.92447259144769    0.32588262660411    1.68523956571582
H         1.26875505976332    2.82870047003868    1.16194848754400
H        -1.69486055542221    2.68360171907121    1.84327984249235
H        -0.95385305024697    2.12258493582758    0.33641872666405
H        -1.86292902008366    4.44085367787529    0.11287205296945
H        -0.11439571335545    4.42176271316407   -0.09368576760870
H        -1.60409291956188    5.15771979160723    2.46927408178447
H        -0.78389955136355    6.28359932802997    1.38892075045093
H         0.62532306205825    5.71842112451126    3.36397476321528
H         1.38423827378605    5.20682203146106    1.85681980784372
H        -0.18881052440382    3.42599530859188    3.77210128384881
H         1.56161455986623    3.42184373108558    3.55753959302827
C        -5.36938797660519    2.62018837999264    0.39988627456383
O        -5.50055603769314    1.57513329916886   -0.55400232113582
C        -4.72735231834916    0.50224547428638   -0.46454948862931
C        -3.77580705245097    0.26462584164907    0.53299559041135
N        -3.02380603664581   -0.82600079418281    0.56902595499727
C        -3.16440639148571   -1.76905064444733   -0.38777740382796
C        -2.30048363395902   -2.90407764351708   -0.24490130037005
N        -1.60727428356907   -2.98447586463217    0.84361774097870
C        -0.63729876290169   -3.97597481402473    1.02828115707523
C         0.38955279983605   -4.13678940570399    0.10461865016904
C         1.40864835203290   -5.04096446713963    0.35899202656339
C         2.53850753976681   -5.14247558183445   -0.62159985573473
F         3.42836038288081   -4.13449699020256   -0.47403351758489
F         3.24518076561524   -6.27729218991265   -0.50729722331934
F         2.12486295290959   -5.07755501388272   -1.90069913177773
C         1.40704043230923   -5.80145053080792    1.52517447734828
C         0.37668893440635   -5.65995962372482    2.43170781840768
C        -0.65663986949003   -4.75253891615060    2.20310059799909
O        -1.64152093279514   -4.66126896289464    3.10433703273150
C        -4.09006034812422   -1.62063735778696   -1.42524536318055
C        -4.86861844713198   -0.48765306790810   -1.46313461311121
Br       -6.14792818677143   -0.20554211417531   -2.84450487482948
H        -4.35380770075994    3.02141793397726    0.39741753144166
H        -6.06790557484374    3.39021071530228    0.08011607099899
H        -5.64084605827725    2.27234444519172    1.39851301761988
H        -3.61064876780339    0.98231642268255    1.32160109679652
H        -2.25410552671264   -3.66355791435312   -1.01711738426304
H         0.40800211825502   -3.51988984685202   -0.78037676950491
H         2.20616010536777   -6.50005110491095    1.71517834127303
H         0.35078234519301   -6.24643321128313    3.33544468157542
H        -2.34813314624928   -4.06867153608242    2.80578493071448
H        -4.18222107943517   -2.38027035792844   -2.18399814787477
Cl       -0.08267034969753   -0.58282332802916   -0.18483147419650
