75
 energy: -113.644790223574 gnorm: 0.000715565188 xtb: 6.4.1 (afa7bdf)
Ir       -0.84704706500992   -1.15392434050649    1.30817595961498
C        -2.02069125225726    0.91444505414075    3.77882747279694
C        -0.89249464504544    0.17272524131368    3.14579481268080
C        -0.54909676987761   -1.17996845806967    3.51170685970415
C        -1.22620946181717   -1.97960450635362    4.57214733239770
C         0.72263000375587   -1.49484815875316    2.91921296215265
C         1.54725516599344   -2.69016549397755    3.24907096657154
C         1.09623508150406   -0.40220831965110    2.09293627484489
C         2.40003831774428   -0.24156616661513    1.38583486467235
C         0.09136031982996    0.64749503924388    2.23334519029353
C         0.30537260370169    2.04534774680787    1.71718335165563
C        -0.85314252210451    2.61753970385058    0.89295562877107
C        -0.46164632294127    3.98647504623021    0.34300705114311
C        -0.11077890807993    4.94085685625977    1.48203650426513
C         1.02127543208485    4.36866872878056    2.33122141928786
C         0.64370489716432    2.99449249647568    2.87803510064489
H        -2.91826999865293    0.30133053570487    3.82330014522691
H        -2.24753492368171    1.83700185735962    3.25720491414134
H        -1.73831716048621    1.16008924122834    4.80341988811435
H        -1.06217677819563   -3.04371712120139    4.42547783717354
H        -0.81409531016470   -1.70656286385763    5.54440241431478
H        -2.29486604097077   -1.78609106467452    4.59231638616411
H         0.92661740802428   -3.55664407709694    3.45977915178204
H         2.22736831647291   -2.94519880818794    2.44165372389194
H         2.13860969016000   -2.47073382511485    4.13869524003510
H         2.94552088761424   -1.18047407511913    1.36632622121035
H         2.24742016648619    0.10059853628465    0.36388298294341
H         3.00810728618793    0.49806959915771    1.90662346562394
H         1.17343801295441    2.01505217282541    1.05184698200202
H        -1.74770037075485    2.73410354005269    1.50506770451150
H        -1.07984928146782    1.93713682656194    0.07073602605292
H        -1.28371541826104    4.39699439698985   -0.24621895309672
H         0.39893726377098    3.88099558528628   -0.32129192917023
H        -0.99079016421984    5.09894135821732    2.10993569731689
H         0.18438906105999    5.91048023216831    1.07593468970192
H         1.24332615164104    5.04424629669122    3.15999871277737
H         1.92337221732547    4.28471566986217    1.72061866108956
H        -0.21593535006316    3.09391289206571    3.54101709935965
H         1.47232396874355    2.58649029253184    3.46016760517873
C         3.53173168294019   -3.21779799387474   -1.41835517840462
O         3.34200030188339   -4.39960102440912   -0.65850400715121
C         2.16476136535569   -4.59073314398617   -0.03512201989903
C         2.01869829409125   -5.81393545241042    0.63343189475456
C         0.83765578114386   -6.10521598151523    1.28482078479177
Cl        0.66684137647257   -7.62546781968352    2.10364922913307
C        -0.22393660878260   -5.21179842798850    1.29311814657474
C        -0.06324545416142   -3.99071345707884    0.64654164710740
N        -1.10408421938137   -3.04998911924298    0.65225081351314
C        -2.28116496616828   -3.37351677923190    0.21795580544693
C        -3.27579608613173   -2.34981389907292    0.24286624262949
C        -4.57355578783803   -2.47973278110798   -0.26388898746970
C        -5.42775913660116   -1.40356191859897   -0.22618179693102
C        -4.97494193768238   -0.18920438823780    0.31771662558411
C        -5.81083126161302    0.97773991006743    0.38989167031048
C        -7.11643720833380    1.19478676130436   -0.00418995258337
C        -7.40727304901628    2.53529562028840    0.30863666229422
C        -6.26998316751718    3.04503885937824    0.86962762940502
O        -5.30861904386483    2.11990137358966    0.92388805724922
C        -3.66111869266600   -0.13966865108888    0.80242730147480
N        -2.84240249868872   -1.17730921787766    0.77669594980711
C         1.12267120435791   -3.66847223188617   -0.00870120472861
H         2.79373963474787   -3.14100343051468   -2.22038111365148
H         3.48245961991475   -2.32727836090812   -0.78757263785334
H         4.52822942073127   -3.30557295536184   -1.84592916022238
H         2.83787437837945   -6.51299788118983    0.61899876511079
H        -1.13920461773124   -5.44888112383678    1.80896593011752
H        -2.48888774009564   -4.35699300338520   -0.18694221959376
H        -4.88241528389809   -3.42204858917881   -0.68618368050265
H        -6.42921156773502   -1.48508452925746   -0.61458295358711
H        -7.78311282491970    0.49130492800909   -0.45771544756232
H        -8.32942513121047    3.05175041428138    0.14123250092343
H        -6.04159815601693    4.01949023512479    1.25406742354639
H        -3.28125599450832    0.78229627391165    1.21538841392655
H         1.18562185451809   -2.71762454620959   -0.51159375138878
Cl       -0.44420198814925   -0.56819033570353   -0.97213080003359
