83
 energy: -130.961195678493 gnorm: 0.000363073006 xtb: 6.4.1 (afa7bdf)
Ir       -0.49780109433360   -0.40528009679472    1.35912167663974
C        -1.84526472748419    1.38779322259312    3.95754469072675
C        -0.65728807771061    0.74718670168274    3.32772162493797
C        -0.23768223304667   -0.60525979043970    3.55790275872364
C         1.06131309016273   -0.77789338334094    2.95174563045147
C         1.97584523134690   -1.92652794482683    3.20068954336040
C         1.38219231545903    0.41460389170632    2.25025791073066
C         0.30881875764682    1.37217948332428    2.48133938341976
C         0.41372501196171    2.81323591133053    2.20295335268423
C         0.38437136260391    3.70835608185091    3.27201223334947
C         0.55671031755497    5.06054730263879    3.05637963505567
C         0.75893231883679    5.56059838832359    1.77087546237562
C         0.97143923245525    6.99868643274067    1.54951108326226
C         1.93463815745053    7.43767633919745    0.64291569333544
C         2.15093938063447    8.78895542328763    0.44493882510104
C         1.40432426910495    9.72391760103852    1.14358569907552
C         0.44029804345143    9.29865919605894    2.04321402777691
C         0.22727865361462    7.94771335238912    2.24781251476664
C         0.76904601463942    4.66282686307962    0.70422820061159
C         0.60079273097375    3.30891163385543    0.91456599606020
C         2.68523039133564    0.74558851922995    1.61029660016628
C        -0.88335834335480   -1.54798648771548    4.51507618891361
H        -1.66480672892909    1.48554707331042    5.02852892572737
H        -2.73799523499514    0.77930875252325    3.82979901964228
H        -2.02595883162732    2.37426265189156    3.54106899479510
H         2.54409261797082   -1.72272626906192    4.10930637365230
H         2.68093634885978   -2.05980884651320    2.38511770610241
H         1.42732147998786   -2.85290869071389    3.34747980929706
H         0.26228192980254    3.33818707855979    4.27808951995273
H         0.56270241328204    5.73658323859926    3.89802737513621
H         2.53323868712829    6.71551268650919    0.10689864702387
H         2.90693178586204    9.11518941630862   -0.25482841652042
H         1.57358104075309   10.77928535797823    0.98754825825912
H        -0.14666852250187   10.02451215271014    2.58735049610487
H        -0.53591366836611    7.62605970920642    2.94132492864207
H         0.89802205211245    5.03210095594866   -0.30192433580210
H         0.59305064180513    2.63137317556450    0.07406911424521
H         3.24660332398302   -0.15283251560575    1.37150824798147
H         2.53669791204629    1.32236142700631    0.70138066139438
H         3.27481647143351    1.35210717283079    2.29860891782984
H        -1.96308200173769   -1.42648067982559    4.51497146807259
H        -0.63999866104444   -2.57987099913955    4.27819321780681
H        -0.51969569317674   -1.33873775073467    5.52190150332281
C        -7.81085441409246    5.22584852845131    0.23033093541794
C        -7.25919520146396    3.80959337174161    0.19964601396808
O        -5.86157142268959    3.88172522643515    0.46587224417790
C        -5.12832031000701    2.76799817338931    0.49517476019951
C        -3.74602076577032    2.95888474962188    0.76596179941268
C        -2.89037220002642    1.90497538069016    0.85233484416759
C        -3.34575375710069    0.58174395849653    0.65667933789363
N        -2.49547263537321   -0.46210368651601    0.74750812109273
C        -2.92369721332054   -1.69027426134625    0.39758996261259
C        -1.90479755424886   -2.68635353270284    0.35604153728821
N        -0.70518540943902   -2.32383626960664    0.69053221906943
C         0.35494468734795   -3.22862142260351    0.61329383800670
C         1.54479208039825   -2.83159364651887   -0.00407206355761
C         2.59662334837068   -3.71670410159045   -0.10383245293764
C         2.46987760535233   -4.99629166987288    0.43354065174608
N         3.56435670725610   -5.91681950611200    0.33233043420531
O         3.42357131834618   -7.02808859008382    0.81043774983762
O         4.57927881803456   -5.54083741662795   -0.22575635657362
C         1.29566058039720   -5.39516026510565    1.06724109657171
C         0.23849315950563   -4.51392447359878    1.15337641152244
C        -4.26436972838224   -1.95123713266432    0.04845435659225
C        -5.16527710604190   -0.92672156279150    0.04787233807743
C        -4.72384036743694    0.38700155130012    0.32756574848445
C        -5.59359226496823    1.48489477642106    0.27443397948741
H        -7.63704151121349    5.67488274736858    1.20409411700951
H        -8.87861723912997    5.20568760340142    0.03396159620746
H        -7.32257283711593    5.83458064915193   -0.52568324959873
H        -7.42422228857240    3.35815152478173   -0.78612955300339
H        -7.74639244783582    3.19268233576139    0.96463917781961
H        -3.39807672537190    3.97093219655771    0.89445080995963
H        -1.83911187532193    2.07315649922930    1.02097847421548
H        -2.11594601217687   -3.68194999429037   -0.01766230089747
H         1.61219651480013   -1.83951603540608   -0.42430142345256
H         3.51812810497867   -3.43802656207049   -0.59083715467311
H         1.22992724764967   -6.39063398227964    1.47842590070034
H        -0.67120304640466   -4.80825886551834    1.65328716116467
H        -4.55151121360825   -2.95854842304265   -0.20431954916382
H        -6.20389592554979   -1.09721978845388   -0.18912464992069
H        -6.62810747108372    1.29712373630200    0.03730065723442
Cl       -0.02051339463185    0.22007644114270   -0.89315068456147
