57
 energy: -91.751379040294 gnorm: 0.000531548609 xtb: 6.4.1 (afa7bdf)
Ir       -0.57094836425302   -0.79337086051814    1.37026241452928
C        -1.96529341635342    1.33537290648455    3.73910257087396
C        -0.80747817877200    0.55868182351784    3.21443631118745
C        -0.51969597082012   -0.80627349854704    3.59127144956435
C        -1.31693345391108   -1.60556336150193    4.56481338069198
C         0.80802758885272   -1.12287697899143    3.13338878010044
C         1.60293004404288   -2.30902455292869    3.55331653916947
C         1.27083723380541   -0.02526367239697    2.35410482573458
C         2.63469371521722    0.16000493820513    1.78500109318713
C         0.26812659358578    1.02763396622184    2.41784390052471
C         0.50408824948642    2.41466421654234    1.92120308377151
H        -1.81490814155998    1.49751697103141    4.80700676514470
H        -2.89900632391005    0.79241865332652    3.61413350369171
H        -2.05610655036384    2.30186461578896    3.25477183078628
H        -2.37876152480036   -1.39921852261546    4.46305971217175
H        -1.14778824142352   -2.67031339757699    4.43088911099422
H        -1.01572301004626   -1.34067336088509    5.57900244414165
H         0.97109248398262   -3.17671958550744    3.72094919665394
H         2.36124742314628   -2.56261366556839    2.81824403733001
H         2.10591310597086   -2.07019611181261    4.49139505854901
H         2.57864195795286    0.62237493322282    0.80206742235638
H         3.16038357401419   -0.78624992441660    1.70171851146701
H         3.20889465941915    0.82025407948116    2.43546268123323
H        -0.36157534786903    3.05112876630767    2.07905600791886
H         0.74985993992470    2.40756840735605    0.86038496910880
H         1.35153523603391    2.84431279585533    2.45502087568800
F         3.66643267038675   -6.07777707776720    0.74791490368315
C         2.59896505707696   -5.25494983551098    0.75208542423906
C         1.41023559334637   -5.70154190539707    1.30618235550188
C         0.31484372317143   -4.85929483556616    1.30222933311883
C         0.41996040627714   -3.57619521353975    0.76163418829546
N        -0.67906165463596   -2.70824108976751    0.74390105550149
C        -1.84244703897058   -3.13789983229238    0.36218819408319
C        -2.89733446240394   -2.17740213892706    0.29535829539282
C        -4.19924054539563   -2.49407438291114   -0.14466650208966
C        -5.12750067553622   -1.49927171726354   -0.25089933969420
C        -4.74169460925124   -0.16369470007372    0.00789468845423
C        -5.62793098884087    0.91469535693976   -0.16547014329918
C        -5.19527448052471    2.20131338918912    0.03356839355226
Cl       -6.27833926312679    3.53185255103324   -0.19383934689174
C        -3.86177812638527    2.46105382252474    0.39830670409682
C        -2.99139504026720    1.42592927856221    0.59865453261242
C        -3.40315546789218    0.08867088410261    0.43092393702881
N        -2.53246804565112   -0.92922941018268    0.63483612169800
C         1.63331262937385   -3.14128703287276    0.22511535740687
C         2.72592830135988   -3.98590723686540    0.20884267803179
H         1.35379587802569   -6.69229288428396    1.72721759585617
H        -0.61440143919216   -5.18553821820292    1.74306260120694
H        -1.99451854809980   -4.15791558035523    0.02930610383488
H        -4.43646278442120   -3.51825061542061   -0.38136120038971
H        -6.14071308265659   -1.70740018279639   -0.55696187355879
H        -6.64173459902014    0.71673408015648   -0.47452183963352
H        -3.53757322102859    3.48333250520183    0.50700928110935
H        -1.95672112370351    1.61642768832712    0.83315126406683
H         1.69387193876116   -2.15348528871306   -0.20523868769987
H         3.66653004277948   -3.67701500879911   -0.21831552692382
Cl        0.03559767510198   -0.07013994859494   -0.82242002515200
