73
 energy: -112.424322476784 gnorm: 0.001694006458 xtb: 6.4.1 (afa7bdf)
Ir       -0.67198789398063   -0.80856835783042    1.77509035168472
C        -1.15408455190316    2.61811475514010    3.61554809477860
C        -0.54428402742562    1.26555378443511    3.74214707196407
C        -1.39554205850787    0.04796123917186    3.79173423217156
C        -2.82834060096500    0.05859230743604    4.24707367952225
C        -0.56854166078750   -1.06020597226260    3.95694306053299
C        -0.97683605793303   -2.40881581664781    4.46417960809987
C         0.86844312497860   -0.57738987476773    4.05253745580682
C         1.65210010440072   -1.05040720471048    5.25467363828427
C         0.75752893473421    0.92573061225121    3.88050882511657
C         2.00266260381578    1.75863408951556    3.81314365820065
C         2.13197423522686    2.49481671142339    2.47081720104847
C         3.45779412543526    3.24746666804590    2.40990407457714
C         3.56104405778921    4.24167992586184    3.56369089755762
C         3.42903994004664    3.51886819385149    4.90203874303883
C         2.11010144838216    2.75367983658934    4.97803642466892
H        -1.74692717632535    2.68595274079587    2.70553322625433
H        -0.39856443218464    3.39396803274667    3.59246171861533
H        -1.80768882365167    2.80582277132839    4.46655865256124
H        -3.42323420331992   -0.69637156677822    3.74046219517429
H        -2.84116276656403   -0.17419200955376    5.31259252951831
H        -3.29087553620559    1.03193603957397    4.12127751222744
H        -1.96284357313507   -2.68039991988080    4.09783058125830
H        -0.26276151824414   -3.17429608757062    4.16893259100184
H        -1.01734496233920   -2.38689784744100    5.55410619213405
H         1.68506438500188   -2.13554292010426    5.29423209110409
H         2.67017586271010   -0.67159681034280    5.22860582815627
H         1.16640150204797   -0.67630809055268    6.15355096897067
H         2.86094200158280    1.08070033488308    3.88546680443449
H         1.31483242857031    3.20381900821988    2.34592958577410
H         2.07736607011283    1.77420881295857    1.65236696271068
H         3.53834291038066    3.77390725699653    1.45634144821244
H         4.28825246000909    2.53902659798921    2.46844521600068
H         2.76939202867277    4.98932226205659    3.47271196121385
H         4.51790749921708    4.76626074888765    3.51860346975324
H         3.48043472924978    4.24073239161715    5.71981255502033
H         4.26514210169798    2.82489897149863    5.02038902906066
H         1.28262497317815    3.46170466442665    4.94461301450876
H         2.04999977017704    2.21510038495018    5.92557363948835
C        -5.94659417232513    1.32719492912175   -4.33563189750101
O        -5.01619278797536    0.89623104197438   -3.34442200373347
C        -5.21312148068822    1.32242613629216   -2.09875614814118
O        -6.11906517742164    2.04988803081891   -1.76109235598874
C        -4.18152163529292    0.80205791695245   -1.15714298441707
C        -4.21967994396866    1.18968245505530    0.18631273319835
C        -3.28131256905205    0.68998154263869    1.06446038213350
N        -2.30425483298284   -0.15200795593802    0.71016523233615
C        -2.24015913153385   -0.50201793628708   -0.61566917456205
C        -1.14985372158438   -1.35662856897414   -0.93549667665746
N        -0.31826798282619   -1.61100196894285    0.04157816487882
C         0.75152504213981   -2.49476821691486   -0.20923248577772
C         0.90362681186530   -3.63274005588524    0.58380339253623
C         1.95038625582302   -4.50514495350910    0.35002025954331
C         2.86144370257165   -4.25278989465045   -0.66263137250356
C         2.70973273240137   -3.12070128179151   -1.45870322215367
C         3.65740092567032   -2.80706258281476   -2.55896138749331
O         3.57039819199646   -1.82452625436064   -3.26222293947037
O         4.61922298880763   -3.71321213084851   -2.70268284006511
C         1.64933720537754   -2.24626487349692   -1.23804387930911
C        -3.16942749229610   -0.05483344969976   -1.55576251134404
H        -5.49344349556480    1.09477585794419   -5.29526903573565
H        -6.89091498590279    0.79279350055644   -4.21829260097362
H        -6.13134452568509    2.39844561591582   -4.24067092145277
H        -4.98873217794588    1.86594428200110    0.52191481029782
H        -3.32472861419959    0.97353104649009    2.10077205192915
H        -1.03294150840739   -1.79838724789795   -1.91618424410762
H         0.18259456927098   -3.83160308938471    1.36266522742401
H         2.05856841154943   -5.38794861290698    0.96011450475981
H         3.68520145327405   -4.92381029633994   -0.84239309884843
H         5.22594123257557   -3.48836386472722   -3.43049604675003
H         1.55512041459389   -1.36904600238893   -1.85999276895581
H        -3.08652294933754   -0.37376686628444   -2.58188847654925
Cl        1.58443079291146   -1.22617391653825    2.50526052243196
