76
 energy: -116.875544653812 gnorm: 0.000959119125 xtb: 6.4.1 (afa7bdf)
Ir       -0.70110599215011   -0.90620172430444    1.31562851216312
C        -1.90491449615860    1.41623243232753    3.64565733196962
C        -0.83632934883663    0.51459053263043    3.12655674194282
C        -0.74299952990655   -0.87261776312519    3.53855542280270
C        -1.68237101959997   -1.53454470910157    4.48764091211699
C         0.53884620184097   -1.36947908697361    3.14331927554890
C         1.15351216032778   -2.64391124592522    3.60430698378660
C         1.16865578285099   -0.35800742371961    2.35205278585315
C         2.57360282123274   -0.40160524676017    1.85215453090243
C         0.33521521634641    0.83804139211498    2.39288944232902
C         0.84986940668258    2.18799242447996    1.97384291865794
C        -0.05933774452458    2.99511827664770    1.04173866423160
C         0.64045679957047    4.29050265675720    0.63752337630858
C         0.98657271576293    5.12052008667349    1.87133012602926
C         1.86744196342404    4.31788696662386    2.82522069902732
C         1.17948644321033    3.01666989566341    3.22844970783932
H        -2.89240670105238    0.98544807314019    3.49527963559617
H        -1.87783070109904    2.39518569918620    3.18284942415103
H        -1.75580793874610    1.53603699687330    4.71949213943347
H        -1.62009233200008   -2.61617026215940    4.41416101371170
H        -1.41961276055906   -1.24842712539970    5.50674680275290
H        -2.70764298462711   -1.22553221714729    4.30483175208815
H         0.40400799402999   -3.41195414608454    3.77247196079290
H         1.88929774534363   -3.01548775413272    2.89704546821604
H         1.65818847427981   -2.45252274804824    4.55213921987644
H         2.92518562597421   -1.42597143893859    1.77462707412640
H         2.65260638005302    0.06727710347997    0.87459906794978
H         3.22164628311747    0.13641253720491    2.54414855535422
H         1.78507360698336    2.02518770467145    1.43091312050340
H        -0.99606221424942    3.25110591530568    1.53713552964030
H        -0.27989031124780    2.40384924409380    0.15210243529950
H        -0.00709996742794    4.86512122647516   -0.02779401907664
H         1.55476388512181    4.05759631308127    0.08696786376892
H         0.06694667563067    5.41338841280455    2.38386054169185
H         1.50263674776443    6.03454939611103    1.57115137817495
H         2.08328028828234    4.90895329445079    3.71751811386422
H         2.81859290497516    4.09536533574408    2.33641427759077
H         0.26321705872741    3.24737877472042    3.77173597744819
H         1.82936783343635    2.44308575269973    3.89154855099469
C         5.27735704012773   -5.52076531888496    1.51697301059685
S         4.17711416493559   -6.17333928554336    0.23450661875554
O         3.82014613741844   -7.53218873667035    0.56741097395421
O         4.77660860899267   -5.94328104284245   -1.05787779936541
C         2.69891731886266   -5.15034870290058    0.36608432595522
C         1.58173952708521   -5.65159229279161    1.00817855815229
C         0.43875497391349   -4.87719277587747    1.09562163344548
C         0.43214008894225   -3.59276866992669    0.54654437810752
N        -0.71844028644284   -2.79330640833376    0.61184722436500
C        -1.86599230272265   -3.28932604886543    0.26904505488275
C        -2.99024409055404   -2.40752773674819    0.27887933583755
C        -4.28182841977930   -2.81162741905748   -0.11721299938576
C        -5.28684526370144   -1.88834215304730   -0.15568980083098
C        -4.99259265700167   -0.53572000892396    0.12930359421953
C        -5.96016581945211    0.47946444691676    0.02277347943664
C        -5.61410079084035    1.78846104783854    0.24574510340804
Cl       -6.79532219109730    3.04258932467511    0.09310237831614
C        -4.29043087870062    2.13406530643917    0.57576678181162
C        -3.34127918517106    1.16044238895863    0.71274555414155
C        -3.66001897992574   -0.19678903643432    0.51036356972748
N        -2.70660769414686   -1.14702740590426    0.64360861917706
C         1.57124026586210   -3.09078812614995   -0.08532570819992
C         2.70299746164626   -3.87977848311612   -0.18291841561198
H         6.18731919025722   -6.10793146552687    1.49508764903141
H         4.78052386041452   -5.62782385595899    2.47211112246093
H         5.48991731592788   -4.48576425259095    1.28440802520464
H         1.62117616651569   -6.64951621012620    1.41446062788086
H        -0.43661690948094   -5.25471680145430    1.60079411830745
H        -1.96099489586401   -4.30815787694136   -0.08841958834320
H        -4.45213486580769   -3.84393143721702   -0.37555477383918
H        -6.29348601068266   -2.16586825885169   -0.42637917104860
H        -6.96840237693826    0.21727826725700   -0.25551050306542
H        -4.03738085030974    3.17320378058738    0.70892496275817
H        -2.31499062077616    1.41429942855301    0.92276275197406
H         1.53907562658501   -2.10424174785452   -0.52113618406451
H         3.58282789153962   -3.53087843387378   -0.69931852505540
Cl       -0.23100352239529   -0.14373455091897   -0.89269329860947
