66
 energy: -116.323350390332 gnorm: 0.000432098378 xtb: 6.4.1 (afa7bdf)
Ir       -0.70313561488723   -0.96144398847924    1.46261155969066
C        -1.88173345705743    0.77598049864828    4.24668245292728
C        -0.76210669715975    0.14100398327832    3.50352906489301
C        -0.36628010186246   -1.23212470375735    3.66233270411073
C        -0.98197394218774   -2.19746571610011    4.61691909442303
C         0.88714771221185   -1.41273578340030    2.98516538984896
C         1.81041141619389   -2.56536594143758    3.16492879491991
C         1.19633394837778   -0.19920710252770    2.29458180485082
C         2.49225840662056    0.09848762177655    1.62651021231949
C         0.16604156786276    0.77277874536535    2.62569216923145
C         0.27368213487907    2.21434774922430    2.35346315545784
C         0.28636018829378    3.10968073174390    3.42114437098868
C         0.44305076299763    4.45810689006037    3.16419227020175
F         0.46035615055427    5.31674908221620    4.20523385061358
C         0.58694555460105    4.96284283325425    1.88470331617116
C         0.56695347802502    4.04789139179880    0.84676547454571
F         0.70215974073806    4.50384808326959   -0.41596336444355
C         0.41625464714930    2.69061730283451    1.05265604405970
H        -2.05081754033094    1.79528857394828    3.91501903015476
H        -1.63180668075823    0.78470155186369    5.30842942241967
H        -2.80309924152640    0.20834570155573    4.13625622356806
H        -0.85232367470255   -3.22245703186926    4.27952223735860
H        -0.49677106810399   -2.09857386529692    5.58842301507937
H        -2.04204632402829   -2.00046896092799    4.74525627594649
H         2.42418751087576   -2.37340976853019    4.04565094445758
H         1.26934557519860   -3.49271181744968    3.32840496615156
H         2.47048857137496   -2.68114517440583    2.31097904013294
H         2.82185542416338   -0.74026114624856    1.01840518648753
H         2.41629552208286    0.98071596716869    0.99863238095604
H         3.24848724983902    0.28156821357352    2.39107724216748
H         0.20160021595805    2.77064570901829    4.44016730496112
H         0.70853801627026    6.01774654639985    1.70454844781762
H         0.37814443236355    2.02036820068198    0.20828395635829
C         4.50957119516487   -4.73698223297880   -0.95948752439860
O         3.41095645191362   -3.86476826146746   -0.75464444416911
C         2.32535177477762   -4.31773818435559   -0.10037536823239
C         2.19686891263334   -5.58978294309459    0.46180044656184
C         1.03556555376265   -5.94123270006789    1.12936251302844
C        -0.00540886611000   -5.04220667270021    1.22277048923529
F        -1.12828783689003   -5.38397414587395    1.89828400018650
C         0.09353182340612   -3.76198921546578    0.66712052402796
N        -0.95949191558110   -2.83829433717830    0.74749392151671
C        -2.15339877885222   -3.19255765039809    0.39799002240300
C        -3.17440175119856   -2.19399327021369    0.40920171325664
C        -4.46454482291378   -2.40172779194957   -0.07649485050174
C        -5.34679524237225   -1.34502025211895   -0.16289240834093
C        -4.91109565456708   -0.07026131013779    0.21339031456298
O        -5.61039588028583    1.05350705095968    0.16213365320035
C        -6.95393720769507    1.03032943283856   -0.30283554211691
C        -3.59036782707944    0.04832197577482    0.70449273147448
Br       -3.01858941542918    1.78450309045135    1.15084608656634
N        -2.76092333172142   -0.96905547198301    0.83527484016919
C         1.26886822608914   -3.41025829326168    0.01935487504677
H         4.94991780484193   -5.04975593302901   -0.00946731703087
H         5.23649146772355   -4.15585260142901   -1.52276951987364
H         4.21525520853344   -5.61374731683393   -1.54116216319431
H         2.99198419692794   -6.31226445729795    0.38920373469580
H         0.93095375395553   -6.91658034612394    1.57669635572851
H        -2.37243375439808   -4.18895020054854    0.03103580567448
H        -4.75912578673478   -3.38879629775266   -0.39340822182413
H        -6.34518721669443   -1.49905573374717   -0.53825039768339
H        -7.57344798208721    0.38933453307946    0.32714928092387
H        -7.00128103548090    0.69934905776948   -1.34208449027377
H        -7.29805948921862    2.05953014263123   -0.23049576961214
H         1.35592536610686   -2.43330424880871   -0.42937258627474
Cl       -0.34908282455779   -0.26073379194922   -0.78837774354314
