68
 energy: -99.981337935049 gnorm: 0.000658835978 xtb: 6.4.1 (afa7bdf)
Ir       -0.33284171301507   -0.72165469073776    1.50990154228865
C        -1.91165036707675    1.20769541931627    3.86793881537404
C        -0.67064576133311    0.56890754824271    3.34157955680789
C        -0.26161441817714   -0.75944570781074    3.72948501718638
C        -0.98213667103091   -1.62765964545146    4.70424880290581
C         1.08965378167339   -0.96139397452028    3.27767456242613
C         1.96841145464334   -2.08538634539792    3.70323719912441
C         1.45899686382437    0.16698991222335    2.50195214604952
C         2.80749654155964    0.43080111615596    1.92280855222179
C         0.36320427102722    1.13190980147475    2.53985687766230
C         0.51631528484609    2.55191360000193    2.06356864235247
C        -0.60228594539394    3.04655781934204    1.13994798480892
C        -0.28955257873251    4.46087250878958    0.65865138371375
C        -0.13454642111063    5.40793968594279    1.84632338301355
C         0.96463041841586    4.91384710672016    2.78322606615896
C         0.66518576201351    3.49750872265089    3.26669314832615
H        -2.76314239589885    0.53492520988844    3.79171771387914
H        -2.14527586974432    2.13473581374586    3.35760463112408
H        -1.76086175637956    1.42813518747613    4.92551781155485
H        -0.69788000070436   -2.66911619860212    4.58352080833180
H        -0.72126785766347   -1.32122544843382    5.71789369975375
H        -2.05901497062684   -1.53941719831334    4.59208660606254
H         1.41396054233679   -3.01709490869251    3.77981940773153
H         2.79613603269497   -2.22996353632392    3.01566029020814
H         2.37677877783918   -1.85035317142104    4.68683338585844
H         3.39636538654974   -0.48064675045095    1.87471691271590
H         2.72511657917288    0.84074045844367    0.91819827416038
H         3.33806507138803    1.15242857099329    2.54425304342367
H         1.44386916273198    2.60366684565228    1.48564119502149
H        -1.55704240377007    3.06757288652803    1.66529892243537
H        -0.68654747711593    2.37201954559425    0.28621430024892
H        -1.09036421472036    4.81242503339787    0.00500061802252
H         0.63422636689492    4.45458072165402    0.07572280491555
H        -1.07922045432308    5.46659705067435    2.39239528049864
H         0.10486417437090    6.41231854647764    1.49140353195245
H         1.05113641852586    5.58296340431038    3.64193002735728
H         1.92093056500017    4.92688822732224    2.25509895374030
H        -0.25449416570688    3.50400721440985    3.85180973202580
H         1.47271009290124    3.14755908782444    3.91254012472815
C         2.42940137065233   -7.68656454355161    2.50174661800688
O         1.36677639905697   -6.77953687256901    2.26683608408825
C         1.63003734403695   -5.59421438910829    1.68734076381520
C         2.89227390947776   -5.17235112216092    1.26966204950200
C         3.03493390602439   -3.91657721984705    0.69754693404815
Cl        4.61045422190815   -3.40428916988414    0.17516526976536
C         1.96386789559173   -3.05757851331651    0.54395666573563
C         0.70301303153943   -3.48939070897553    0.95607456306212
N        -0.38684306991367   -2.61799338422859    0.81701346655074
C        -1.46661871741990   -3.00604047853582    0.21842656308893
C        -2.52149152327639   -2.03990167299564    0.12295993621138
C        -3.71844480318937   -2.23565176425300   -0.56732049105667
C        -4.63861817093485   -1.20560797294135   -0.62076165123126
C        -4.33461676040348   -0.00527378465983    0.01304506933612
C        -3.12780370527152    0.12105554435623    0.67871901846384
N        -2.23999890519064   -0.86732816149350    0.74584170184284
C         0.53096758069710   -4.74660619572445    1.51506413141181
H         3.18083260983178   -7.25058319754276    3.16449961588742
H         2.89708129850750   -8.00136525082542    1.56570343048641
H         1.97311166328472   -8.54711475740683    2.98593270371051
H         3.76020212807593   -5.79937738152501    1.38149439330407
H         2.07902270863306   -2.08696615845666    0.09096345508816
H        -1.55531714646460   -3.99174018247317   -0.22293417136178
H        -3.90071149911820   -3.17912797090172   -1.05567234232329
H        -5.57094256199659   -1.32807599625231   -1.14900579118618
H        -5.02241287241957    0.82413455958052   -0.00692697008297
H        -2.86142847023600    1.04410500106059    1.17050127245015
H        -0.43662109698694   -5.07901228108746    1.85382373655890
Cl        0.27059812965753   -0.06558644317460   -0.70859078133091
