84
 energy: -139.242253281205 gnorm: 0.000224318288 xtb: 6.4.1 (afa7bdf)
Ir       -0.34176124563656   -0.67128575550489    1.61527860410230
C        -1.82521954289561    1.09937428795899    4.16423936217760
C        -0.60792147612030    0.47339111372310    3.58269032462709
C        -0.21502134797285   -0.88417261319744    3.83706665628275
C        -0.92931576450118   -1.82476450295111    4.74777838812379
C         1.11303530018942   -1.06714430139485    3.31903601185353
C         2.00702959175878   -2.21522633001132    3.63368121052471
C         1.48582632891352    0.12291801789949    2.63313909069378
C         2.83628002794585    0.41581361356837    2.07356403453912
C         0.41362074054091    1.09613678024162    2.80491609201734
C         0.58275016951289    2.52639474816923    2.53044978659315
C         0.30107050610301    3.46609432572805    3.52168935936882
C         0.57195172373322    4.79912479702044    3.28317480049733
F         0.30630547140711    5.69643968882428    4.25603646940204
C         1.12324666531012    5.24950635729620    2.09789927938980
C         1.38150155124870    4.29640358741098    1.12922172576500
F         1.90932499002201    4.69867036182995   -0.04451997187571
C         1.12229703843607    2.95347225596471    1.31768468556220
H        -2.02385566156529    2.06853656622008    3.71837491401876
H        -1.67429546550220    1.22547995181414    5.23730503014960
H        -2.69490319577936    0.45907891412226    4.03278698532599
H        -0.66169362670722   -2.85564697864127    4.53345396707631
H        -0.64656223112707   -1.60895435417977    5.77874434596801
H        -2.00655791578013   -1.71099141335444    4.66389658343106
H         2.50470058109080   -2.01087633023814    4.58295154288970
H         1.44920459411563   -3.14138250829882    3.73892704343227
H         2.76511457908676   -2.35182988685306    2.86885179976679
H         2.84769075522731    0.30001273237001    0.99053418181799
H         3.11561649330730    1.44343592356009    2.29762172479387
H         3.57657102983907   -0.25750278389160    2.49614301405919
H        -0.08435975700789    3.17545190439234    4.48416040319226
H         1.34444107546405    6.29132277315434    1.93965791307308
H         1.31972769718118    2.25338569895252    0.52221795335200
C        -0.72213775179155    7.64437803559021   -0.11181140763640
O        -1.05353881062251    6.26313302394065   -0.00782211193830
C        -1.96594158233792    5.91366578247978    0.90126948775952
O        -2.51479352367119    6.70123697320204    1.64045683174088
C        -2.22668943466415    4.45185725472604    0.90518537164416
C        -3.18537410163161    3.95172074901240    1.78498759452952
C        -3.49257232172635    2.60676432471799    1.78616477386621
C        -2.81273419397033    1.73056926380251    0.93751106252719
C        -3.23391755235845    0.32254479892550    0.82874857948841
C        -4.58320917316131    0.08562833482679    0.55138750156933
C        -5.03141932242753   -1.19776532314978    0.29131278649550
C        -4.10792219764019   -2.22743505242083    0.29568045905369
C        -2.78451728255680   -1.94064164875618    0.62213255496841
C        -1.76255949409812   -2.94287515317555    0.65391049428525
N        -0.57105085786860   -2.58023696251816    1.00792275119138
C         0.45514633456069   -3.52373634331265    1.08086780463136
C         1.72940255173589   -3.20936508769517    0.55057290934381
C         2.73775570454162   -4.12331412577021    0.60451794201156
C         2.55519212237095   -5.38305074308145    1.22622503583164
C         3.58825520152747   -6.32025092420742    1.32926357584829
C         3.39246488716487   -7.53590646178449    1.96188354679740
O         4.46098644339970   -8.36063906189760    2.01577097239883
C         4.34596580264933   -9.61166652136097    2.66592216363548
C         2.12367826449107   -7.83832846857374    2.50541065390308
C         1.10045588671657   -6.93830392073482    2.41270912777859
C         1.27801260073043   -5.69024762048169    1.77737257820179
C         0.23982488357406   -4.75179462233629    1.67649251281057
N        -2.35585620333124   -0.68391541986709    0.91599122825489
C        -1.84902270517445    2.23096291382722    0.06603029028724
C        -1.56722333205580    3.58394934404602    0.03990348853318
H        -0.69874662728509    8.10286020368805    0.87871727677042
H        -1.46465795481205    8.15918197113077   -0.72374025538960
H         0.25432896905734    7.68681884876253   -0.58795398878352
H        -3.69082757025191    4.64067223674085    2.44430357256109
H        -4.25681477839921    2.23290151201613    2.45041277245624
H        -5.25741211435515    0.92593542771190    0.51650735765996
H        -6.07068774577787   -1.38369308560706    0.07103635825393
H        -4.39082908296546   -3.24060716129047    0.06243761584230
H        -1.97756951058284   -3.95900767603711    0.34504870751487
H         1.86610637769085   -2.25260377339581    0.07302249429420
H         3.70133923964063   -3.89586045849349    0.17518714595829
H         4.56105344949057   -6.10283144813721    0.91767968283273
H         4.08185910085773   -9.48979295780568    3.71988562663540
H         3.61267781812873  -10.25347223520728    2.16974133297825
H         5.33152964301094  -10.06724355706373    2.59190939277974
H         1.95646069328711   -8.78322916566365    2.99667662229639
H         0.13439805971903   -7.18136756375645    2.82896826504492
H        -0.72088793710041   -4.98336282358306    2.11253312946623
H        -1.34894029546377    1.56672831967493   -0.61923494638973
H        -0.85162027855150    3.97430775423597   -0.66491873983572
Cl        0.42777102246505   -0.17904234755909   -0.58316429478911
