68
 energy: -104.716675907226 gnorm: 0.000450145667 xtb: 6.4.1 (afa7bdf)
Ir       -0.19499236097650   -0.90318209829682    1.34137650382707
C        -1.71031512792665    0.44376335757937    4.00763698257343
C        -0.44256647232668   -0.00160529566168    3.36222285869818
C         0.16833291888538   -1.28401151192609    3.51818851346658
C         1.43564289900107   -1.26186431513940    2.83363148857922
C         2.50247361052561   -2.29922874405992    2.94218604670678
C         1.62701568783962    0.05074060048705    2.29614944750757
C         0.44761606422546    0.82137213598603    2.57452900332874
C         0.30611407852513    2.25909848246029    2.30853758588746
C         0.00757369911201    3.14729411167905    3.34064857326533
C        -0.08190014102302    4.50235780848780    3.09095409167254
C         0.12328004016663    5.01085455885940    1.80909230006004
C         0.04205006659264    6.45667761584608    1.55268698598154
C         0.97364584239537    7.08223967302139    0.72624454084899
C         0.90721006810074    8.44414292209954    0.49673437336100
C        -0.09515977666662    9.20163655396784    1.08087821181275
C        -1.03037905497897    8.58860064835138    1.89873423962196
C        -0.96037430976514    7.22816553551890    2.13693850356341
C         0.41855406543084    4.11829319874032    0.77941999051199
C         0.50963654854456    2.76277961060610    1.02318693668012
C         2.88052035252183    0.55102065550935    1.67233762711180
C        -0.32911392820554   -2.39367802675983    4.37786004073592
H        -1.52070634192714    0.66475093767178    5.05860987070601
H        -2.46835127244856   -0.33497144199722    3.96662791159361
H        -2.09524613959887    1.34137628137830    3.53125688294236
H         3.11200592397398   -2.09027299148896    3.82244066777259
H         3.14938017620722   -2.28269047613261    2.06980619793020
H         2.07967349364781   -3.29384102595875    3.05109863356502
H        -0.12135353816803    2.77915787313840    4.34623388760182
H        -0.28776025325829    5.18112874692085    3.90492161417201
H         1.76802903318371    6.50249178872878    0.27926366318730
H         1.64158066359622    8.91860966795745   -0.13817559956136
H        -0.14648833000383   10.26524763281891    0.89928008668192
H        -1.81629652814025    9.17442176506407    2.35288336627237
H        -1.70084624565359    6.75676247475607    2.76644639793556
H         0.56274988923037    4.49074730208594   -0.22347693565217
H         0.72393190701958    2.08145891427353    0.21250620002009
H         3.00608226620806    0.14160408204248    0.67021262439740
H         2.86233268079345    1.63510662972614    1.59545969636820
H         3.73611660540629    0.24277906584093    2.27064113769837
H        -1.40678049305132   -2.34370040677915    4.50365750118093
H        -0.06167451697305   -3.36221262306298    3.96206344612188
H         0.13240085377431   -2.31218495676962    5.36256203149797
F         1.75813162921680   -7.44659878593998    1.46208608696015
C         1.09930817980957   -6.28407652249383    1.28224704349912
C        -0.22403732008281   -6.19476840523443    1.68209563742184
C        -0.90099140366980   -5.00510569783411    1.48812630651658
C        -0.24435442659619   -3.91468154873523    0.91608114966608
N        -0.91639917090846   -2.70058404523680    0.70845899438171
C        -2.04372191534055   -2.68589664754347    0.07309536072047
C        -2.66682536366998   -1.40718073943185   -0.11644738389617
C        -3.84210820147478   -1.20063939042103   -0.83952610366380
C        -4.32123580555150    0.08868944790534   -0.98267065272970
C        -3.61026811598161    1.13498036216626   -0.40499967079269
C        -2.44975907646137    0.85781321456148    0.29800454439451
N        -1.98863900500452   -0.37927369813319    0.44965752714769
C         1.09318333186478   -4.02224828192206    0.53586320428562
C         1.76824585236265   -5.21461349306843    0.70819240694425
H        -0.70698675657610   -7.04787777008002    2.13057893611881
H        -1.92906339182526   -4.91154361647669    1.80175781364419
H        -2.48017553283558   -3.58853487590150   -0.33904085157408
H        -4.35256897989296   -2.04235262749785   -1.27930470195723
H        -5.22654494006961    0.27999760102720   -1.53693802828302
H        -3.94792952903237    2.15428467663242   -0.49552709816268
H        -1.87095840273806    1.65274066055804    0.74724506433800
H         1.57684446844699   -3.17459981352875    0.07629502841455
H         2.79643212641414   -5.32520292161911    0.40429388573178
Cl        0.72375514569620   -0.66026579906720   -0.83926462736153
