65
 energy: -121.346451038528 gnorm: 0.000367488887 xtb: 6.4.1 (afa7bdf)
Ir       -0.52965050461466   -1.23942902065642    1.49578863280843
C        -2.09275371386829    0.08750475016743    4.18044349563209
C        -0.81663236940825   -0.23537708843231    3.48734694024535
C        -0.03860145461794   -1.41270516636284    3.71548842560121
C        -0.34191208929552   -2.43796848592818    4.74944328815796
C         1.17214124033656   -1.30336827362664    2.94304899689459
C         2.34867779033362   -2.21495610031780    3.03047302109608
C         1.18025444429774   -0.01351596894463    2.30943394476050
C         2.34443947271300    0.59516780621445    1.61963486195546
C        -0.07488249678645    0.62453340704152    2.59561686072299
C        -0.40991791938326    2.01612670987988    2.25426822899569
C        -0.74051622217894    2.91767066910568    3.26381146608830
C        -1.01705672710411    4.22971521474201    2.92678881349584
F        -1.32714050565528    5.09550999054008    3.91023105237175
C        -0.98821231415646    4.68735196691833    1.62110496954636
C        -0.65904332352224    3.76733744445644    0.64121968248694
F        -0.62493495448646    4.17154358081331   -0.64302915788541
C        -0.36783719030990    2.44707721799671    0.92881008298904
H        -2.61490842581532    0.90682205133796    3.69428283938283
H        -1.87476272325387    0.37949777148002    5.20867763775700
H        -2.74570946272290   -0.78124440876955    4.22184984810051
H         0.34908528269999   -3.27200625711390    4.68991538024420
H        -0.23415225378394   -1.97527648950841    5.73151275910080
H        -1.36487740438510   -2.79797701636098    4.67157306884880
H         2.90947215482543   -1.98872887690134    3.93777068940847
H         2.03816961617121   -3.25595517804154    3.06935508413547
H         3.00506182887820   -2.07778834574289    2.17663179669673
H         2.61780940266848    0.02698700571680    0.73186408623199
H         2.12794692166735    1.61693241456116    1.32183978163939
H         3.19970637225850    0.58994881750168    2.29460793616800
H        -0.75688155982349    2.62092202112037    4.29917500784068
H        -1.21056127809176    5.71294048432603    1.37829284072368
H        -0.12474570929316    1.76599255918892    0.12774823527058
C         2.30905022078552   -5.25982141691918   -2.49927377054642
O         2.43058085003610   -5.92307787743013   -1.25293933757358
C         1.66390943673982   -5.52149213099873   -0.22667148993483
C         0.72137276435244   -4.49940550300169   -0.27029689573752
C        -0.00009173050184   -4.15184409978544    0.87290985492419
N        -0.92840933968974   -3.09633427694448    0.79106419200776
C        -1.93216584899587   -3.19984224378120   -0.02483133296098
C        -2.77420525219449   -2.05166048268886   -0.17349324068651
C        -3.88145298489112   -1.98088164783978   -1.02422232579438
C        -4.58089483985841   -0.79588939351026   -1.12052926139669
C        -4.14405163059372    0.29207989195856   -0.35755588717628
C        -4.86086353498517    1.61347980732550   -0.45895386241340
F        -4.49325164179716    2.47405447983645    0.50022109915283
F        -4.62272417318449    2.22003020150932   -1.63344013384702
F        -6.19128446709635    1.47319050851001   -0.36655232197574
C        -3.04214817869243    0.15675460926577    0.47037131527873
N        -2.37452915767673   -0.98709147012891    0.57035521239631
C         0.18213247501529   -4.83465313830342    2.06947744007764
C         1.09440590849541   -5.87673663925981    2.11921865846703
C         1.82286060069626   -6.20132581113106    0.99505146416108
F         2.71865726312908   -7.20541235376818    1.06273157746507
H         1.30942643046046   -5.39276248363912   -2.91981574209827
H         3.04204709079500   -5.73271597836581   -3.14905386555057
H         2.53748043706514   -4.19571609931397   -2.40375872082157
H         0.56592243334613   -3.92821148453738   -1.17067555683195
H        -2.11665391156310   -4.10987893327879   -0.58324757406865
H        -4.17048562396706   -2.84391456082951   -1.60230982663395
H        -5.44023216846568   -0.70005459427142   -1.76634617672782
H        -2.69125921199699    0.99179391167504    1.06030237519538
H        -0.41585343958544   -4.58660200636788    2.92886921615033
H         1.24892923939343   -6.44363608289500    3.02306860701505
Cl        0.31680506107214   -0.88913490746354   -0.68814828702690
