70
 energy: -118.962798725873 gnorm: 0.000441339366 xtb: 6.4.1 (afa7bdf)
Ir        0.88559372330772   -0.44497211397232    1.58919972165149
C        -1.33022316225236    1.21137865533718    3.47573646038681
C        -0.05119253258675    0.46336973124986    3.37363530304786
C         0.11131149372351   -0.93156899851579    3.63483226890495
C        -0.97582843976432   -1.85392314994387    4.06708850996743
C         1.51060539352909   -1.23206564905863    3.55894903017244
C         2.17398258214553   -2.50692858810587    3.92301420771050
C         2.23501910932215    0.00306352574848    3.28796322226590
C         3.71040962833717    0.14178668267840    3.32902061754956
C         1.27206728894636    1.04886252004038    3.17617195018847
C         1.57397651374812    2.48052999329696    3.05311512927948
C         1.10430085233413    3.36388874776463    4.02407334287994
C         1.44186519412309    4.70186522872574    3.92839358275870
F         0.99238466328595    5.54676069910777    4.87215431925942
C         2.21884610036684    5.20383641634966    2.89851641193918
C         2.66261862212355    4.30102948878312    1.94727190862004
F         3.41590485747332    4.75181386356554    0.92847747636798
C         2.36046823943944    2.95297637950079    2.00411260938744
H        -1.22566347606590    2.22505761101336    3.09993970739812
H        -1.62839642083822    1.25810397037991    4.52412794459808
H        -2.12850962540924    0.70196353511954    2.93900245165814
H        -0.73081613645242   -2.89069010082730    3.85846572284992
H        -1.11656325086581   -1.75015767662854    5.14318551598957
H        -1.91567583749596   -1.60948569940954    3.58054698679891
H         2.58938692169353   -2.39794956170369    4.92667833901354
H         1.47753616081270   -3.33887338869821    3.93498433247120
H         3.00080505557144   -2.72440685457816    3.25106838234050
H         4.18947981952487   -0.53649284003824    2.62579190064254
H         4.01303345537104    1.15903169380798    3.10003687340455
H         4.06253538882990   -0.11749886330188    4.32777608477463
H         0.51582998929252    3.02256240684741    4.85974306340148
H         2.46708808641496    6.25057216180249    2.83934846630745
H         2.70937045172164    2.29071875797358    1.22743885389094
C        -2.05946745211711    3.17785618685897   -0.12995154199226
O        -3.26489650963351    2.46260752041243   -0.33862267856269
C        -3.23773424104259    1.12432072057637   -0.35645505611658
C        -4.44262142933018    0.46533880969084   -0.63997885321039
C        -4.45588292096787   -0.91752217392705   -0.68667865751350
N        -3.38830491815728   -1.66724066103724   -0.48478947946203
C        -2.24286153517384   -1.05167419492815   -0.20415752280499
C        -1.08375382576872   -1.90719502731718   -0.03618990336186
N        -0.97137300716954   -3.06779910258015   -0.43593099267615
C         0.04591203063533   -3.97355784820397   -0.33121349376650
C         0.77181018196132   -4.13900587980843    0.85919265352124
C         1.75807421776293   -5.09173002844536    0.93720231586731
C         2.06880434989296   -5.90473855160836   -0.16178896523842
C         3.09136275201530   -6.92625319715338   -0.14585669466449
C         3.89598850419554   -7.16637011800831    1.08586732191747
C         3.28730412619922   -7.64716074107398   -1.27497316618129
C         2.52725214549719   -7.43900767672362   -2.48768631230397
O         2.67710961454693   -8.05254482269830   -3.52275503939621
O         1.56500123646405   -6.46794452324822   -2.45869804212285
C         1.33356295614629   -5.72929573937355   -1.34920689330150
C         0.31828657857499   -4.78266816215366   -1.42802405956048
C        -2.11272000667648    0.33449151945430   -0.10994194348394
H        -1.63882037486183    2.96426982602176    0.85529370151822
H        -2.33260244774978    4.22884520480475   -0.18991012419935
H        -1.32448852209540    2.94672548360708   -0.90471627995490
H        -5.33038653209011    1.04685767506518   -0.82346028734414
H        -5.36712695332670   -1.45685612712600   -0.90144108765062
H        -0.14910862476724   -1.34424151635821    0.51020151987534
H         0.51685755900073   -3.53633767140190    1.71725538161113
H         2.30486326458466   -5.22373338979165    1.85622095631694
H         4.43823202098535   -6.26473271260774    1.36367761409543
H         3.24530968169000   -7.44630351847534    1.91215452054835
H         4.61186034128364   -7.96537561381116    0.91855848437910
H         4.03278306921750   -8.42421063895385   -1.33220057954497
H        -0.23337029461810   -4.67076342427666   -2.34650056702691
H        -1.14434259665334    0.77140214262293    0.10833046314925
Cl        1.90678285182851    0.02156938764890   -0.34573940923702
