58
 energy: -87.859862831143 gnorm: 0.000905817220 xtb: 6.4.1 (afa7bdf)
Ir       -0.77521780685235   -1.04526946041560    1.21899005035862
C        -2.01869655076647    1.35743001960066    3.33891234830084
C        -0.91037349571043    0.45425156261350    2.91389530572725
C        -0.69621420215484   -0.88162467502223    3.43448533587327
C        -1.52738914555650   -1.53054799161107    4.48853939577782
C         0.59887185204741   -1.32193696429747    3.00154008802776
C         1.31139716257317   -2.53274441334453    3.49381978543541
C         1.12165723810055   -0.33167294714036    2.11506943052463
C         2.50319096714202   -0.27324561076886    1.55736963066139
C         0.19546423488627    0.79039156132857    2.09801987754510
C         0.49516451496080    2.10289770233800    1.45987036129436
H        -1.74660333672965    1.82131695251824    4.28773463567216
H        -2.94148661589978    0.80430631048400    3.49417992955256
H        -2.18616391791278    2.15085592443603    2.61537009513291
H        -2.58258213759092   -1.31068265589962    4.35197410191547
H        -1.38979830562916   -2.60784231172989    4.48890448046813
H        -1.22669536967970   -1.14967966339691    5.46526801213802
H         0.61908169089145   -3.34214080649612    3.70923266135888
H         2.04397940584758   -2.88291288026744    2.77217994243668
H         1.83411454723158   -2.27837209070661    4.41633321282113
H         2.49551635673592    0.15735448367683    0.55885255929632
H         2.95532023668859   -1.25951801739173    1.51651187480575
H         3.11853942243876    0.36333979001483    2.19412574910482
H        -0.33455731177138    2.79543980274588    1.56164757877054
H         0.71197653966166    1.97176742928331    0.40099673110602
H         1.37572676362688    2.53920888196753    1.93046811392253
C        -5.55949914431036    1.87647229616027    0.38533476018919
O        -5.83654329283511    0.57227758884812   -0.10470806466930
C        -4.90785768728688   -0.37408203126638   -0.03255334576455
C        -3.65298032196097   -0.24073857422958    0.56504257879052
N        -2.76261895486200   -1.22606475007601    0.60440590920739
C        -3.05811149370422   -2.41605656813612    0.03485927840693
C        -1.98308586970702   -3.35823354326782    0.05933581390183
N        -0.85272522087248   -2.94419184400278    0.53891187995111
C         0.25087192469284   -3.80372018120397    0.58820585961498
C         1.48112971026626   -3.36765833478266    0.09796282360723
C         2.57376391935056   -4.21086968489747    0.13306804731153
C         2.47806724988183   -5.49023959218506    0.67568798270213
C         3.66984248753998   -6.38803723282726    0.74968898454970
C         1.24531568811073   -5.91072823314392    1.17074692363498
C         0.13801047072709   -5.08898425368866    1.12063676176255
C        -4.29905973582069   -2.64778475927366   -0.56925281735235
C        -5.22157761098162   -1.63002825742766   -0.59964295544331
Br       -6.92619310258201   -1.85279091391152   -1.40890142470790
H        -5.40139746115071    1.86161651129970    1.46518525497553
H        -4.69423480401052    2.30735966423785   -0.12183287032329
H        -6.44639009951869    2.46257955467364    0.15516322758191
H        -3.35569705196074    0.69218914263330    1.01735232893854
H        -2.09895496608876   -4.35352290127171   -0.35250250178987
H         1.54879030866832   -2.38602874182242   -0.34375841309037
H         3.51705950018096   -3.87273536854109   -0.26931137407172
H         4.08666947526912   -6.36726968641160    1.75694064306230
H         3.39318342383019   -7.41632849120860    0.52853021775922
H         4.44373115132240   -6.07074988887007    0.05598175716201
H         1.15511314230415   -6.89754420270964    1.59840349652275
H        -0.80902467808996   -5.42257598622751    1.51675059288818
H        -4.51476447753746   -3.60428976018211   -1.01619371224435
Cl       -0.39666921544130   -0.34373990880963   -1.03394993109389
