61
 energy: -90.709218355839 gnorm: 0.000826743035 xtb: 6.4.1 (afa7bdf)
Ir       -0.72851455634494   -1.03423200907222    0.89750972219784
C        -1.90910144829852    1.40712749761308    3.00877146787239
C        -0.80291786043164    0.51791754507325    2.55146925401007
C        -0.52593059544404   -0.79452447897661    3.09473948280066
C        -1.27693482040064   -1.42751047984161    4.21746733823886
C         0.75931410587604   -1.21340758753370    2.60363640016983
C         1.52940469909444   -2.39105057199646    3.09295913033392
C         1.20421090669527   -0.24042015691043    1.66449093512255
C         2.54788754992949   -0.16613672719880    1.02097779037692
C         0.24008769618320    0.84893226428643    1.65423551798205
C         0.46067161887219    2.14797701921968    0.95757206537199
H        -1.59500150002301    1.91668442129779    3.92076554588900
H        -2.80692784097386    0.83838729368905    3.23689554111860
H        -2.14383698072577    2.16618836437454    2.26718848146106
H        -2.34577583385905   -1.25463969792369    4.12393242656604
H        -1.09599981046562   -2.49775480925191    4.25753949934925
H        -0.94647211486710   -0.99129648467637    5.16084171285339
H         0.87024159416574   -3.20745800790706    3.37500753548120
H         2.22488275575407   -2.75080070941507    2.33988352173067
H         2.10086194215615   -2.09580924735409    3.97345318881051
H         2.46396161800129    0.18965757698144   -0.00368927941600
H         3.03945816831094   -1.13423066093124    1.02113010253775
H         3.17140112613341    0.53960886687839    1.57152436489198
H        -0.42911087933457    2.76949988243104    0.98004439294813
H         0.74130712006859    1.98209754274914   -0.08064785404009
H         1.27448597866147    2.68541149741385    1.44438150418563
C         3.67608797612500   -6.41679117806030    0.32031660699503
C         2.48490744107286   -5.51473548556565    0.33922174807900
C         2.55558499701341   -4.23953678556483   -0.21923608239705
C         1.46310641513296   -3.39742983331439   -0.21480623240339
C         0.25464524039844   -3.82775870048368    0.33397418507379
N        -0.84875283423657   -2.96789825598292    0.32231869571668
C        -2.00966056018546   -3.39631370774431   -0.06907277369171
C        -3.07879078171382   -2.45084298770966   -0.06874618994077
C        -4.37029174617047   -2.69820351893680   -0.54811272072257
C        -5.29471393076076   -1.68111968248324   -0.56076133175464
C        -4.91826677908191   -0.40835584622597   -0.09885140702634
C        -5.82481185630847    0.70865646851995   -0.09930039326755
C        -7.14280074442757    0.81889324449045   -0.49221832187065
C        -7.51116676665664    2.16005451916114   -0.27336930167381
C        -6.40268584024953    2.77541457096591    0.23499080760024
O        -5.38685859911250    1.91412633142095    0.34406907056743
C        -3.60994103387892   -0.24543902909414    0.37276225484095
N        -2.72525987865666   -1.22678760951155    0.40123193759273
C         0.16842516031035   -5.10574296274737    0.88632977788761
C         1.27753542908306   -5.92858531228556    0.89414965981640
H         3.56724573050064   -7.22765120401367    1.03535369253875
H         3.79067137281070   -6.85210217138550   -0.67269601149679
H         4.58563495229941   -5.86338369606689    0.54326227878921
H         3.48186253695002   -3.90657175752825   -0.66311738659372
H         1.51147837090144   -2.41908076550376   -0.66699731034374
H        -2.15207823900895   -4.40730974716620   -0.43196030284615
H        -4.61833300911181   -3.68207720644075   -0.91194562897095
H        -6.29282778511904   -1.85052192995982   -0.92907432597456
H        -7.76882041018122    0.04533949541151   -0.88554432264082
H        -8.46419125260124    2.60701043381999   -0.46668323440125
H        -6.22634880387470    3.78643902614982    0.54496782837487
H        -3.29133432961378    0.72171940220011    0.73045823596169
H        -0.75703127649012   -5.43508550974608    1.33420570687067
H         1.20432374248800   -6.91036456297740    1.33731823658684
Cl       -0.43020254637886   -0.45676118865587   -1.40587923411519
