76
 energy: -112.532912057815 gnorm: 0.000340633601 xtb: 6.4.1 (afa7bdf)
Ir       -0.24626738153887   -0.46828284886579    1.83591598828603
C        -2.34890163445864    1.70191946704384    3.62920505686530
C        -1.09902673680966    0.89974322541043    3.49044798125443
C        -1.03060947894697   -0.48488210216401    3.91482368128031
C        -2.17270243524199   -1.24255203097587    4.50208166942575
C         0.34761411964479   -0.86340911774555    3.98191087776099
C         0.86499567434495   -2.08600966599463    4.65778494065162
C         1.11851046106207    0.21866820579675    3.45038167306351
C         2.60562254575559    0.34526616733401    3.50806377358310
C         0.21657037874386    1.33446757458900    3.19087203409333
C         0.72856687785545    2.72849808904915    2.94994763430257
C         0.10507450404573    3.48517396795639    1.77316819054568
C         0.79767005301401    4.83574826580392    1.60820698291224
C         0.66751886785206    5.66548449132213    2.88309254417985
C         1.25376945650013    4.91084114275245    4.07333742434350
C         0.57490194172911    3.55416307271737    4.23978994534160
H        -3.19729358498431    1.19712281209105    3.17243387102975
H        -2.25499589211944    2.68891769366436    3.19278043074587
H        -2.56298043384184    1.81292754774573    4.69318233526961
H        -1.99922223636569   -2.31386062716929    4.46116370612111
H        -2.28939599705287   -0.95747334274139    5.54828989294825
H        -3.10154387895972   -1.01499362783383    3.98653727277551
H         0.90699870911250   -1.88739947273956    5.72988202286953
H         0.20539637400557   -2.93603579488557    4.50541953824396
H         1.86660804105025   -2.33960310351041    4.32529212363266
H         3.06842607055409   -0.59853489958129    3.77579547812429
H         3.00840856771626    0.67738147701672    2.55396671440733
H         2.87405420189120    1.08119436401630    4.26596835571036
H         1.79743598351341    2.64767399726161    2.73207123500075
H        -0.95758381282513    3.66182475734812    1.94150180971673
H         0.22619352676587    2.89764243281541    0.86222860382912
H         0.35642782369718    5.37442188891136    0.76727368311847
H         1.85477577466234    4.68032110925325    1.38136500649536
H        -0.38697547467253    5.88114891735425    3.07166308356833
H         1.18292283155342    6.62006667726678    2.75897652137216
H         1.12621372075014    5.49778573717852    4.98528011556874
H         2.32551159222714    4.76852221729837    3.91690669441717
H        -0.48235351631806    3.70430714173630    4.45879571674718
H         1.01950125764371    3.01761868467954    5.07997781619376
C         5.62305416366801   -2.11406324926293   -2.20182395050018
O         4.98782096942143   -2.57878011173377   -1.01156581224803
C         3.73667823942996   -3.02053883708666   -1.11719174956202
O         3.11534223441858   -3.06893214723927   -2.15043538018705
C         3.20221907213800   -3.43106035997264    0.23654826271816
C         2.66045899353331   -2.26507458187911    1.09410408951009
C         1.35966600676111   -3.05721358008940    1.31808883608987
N         0.12872555727136   -2.33515830064622    1.12847202974341
C        -0.83776925256418   -2.90273654444489    0.49069082218620
C        -2.00384069645683   -2.12309184284929    0.19909736482328
C        -3.10669101598750   -2.63703915510236   -0.51239765242397
C        -4.14108152936893   -1.80410916925746   -0.83050799156776
C        -4.04430642239164   -0.43181725764184   -0.50768036660730
C        -5.02865787047546    0.49826803568839   -0.88859754240438
C        -4.86193938204897    1.83102072251627   -0.60997622789478
Cl       -6.06138215564875    2.98071239556632   -1.09431169896409
C        -3.70513999592707    2.28808660170146    0.04701195098610
C        -2.74879224575652    1.39819994984988    0.44917741710484
C        -2.89255605288870    0.01890864097009    0.20283158412429
N        -1.93399039124164   -0.84821898128411    0.60312888440591
C         1.80139188771677   -4.05763246189146    0.22887377082779
H         6.55994018456326   -1.66435354435135   -1.88563246710161
H         5.80693343468006   -2.94945991971634   -2.87943903400694
H         4.99044233300573   -1.38181329125536   -2.70578268583357
H         3.96253618183933   -4.01430563750908    0.75363597013688
H         2.48781702295250   -1.36083103509339    0.51613751197261
H         3.24497753922679   -2.03066919928955    1.97599409866943
H         1.32841605695171   -3.52025436574465    2.30761390284577
H        -0.76519346679430   -3.92204339986273    0.13016249876334
H        -3.11548564589672   -3.67960994944445   -0.78450762173197
H        -5.01624178380208   -2.16742278977823   -1.34634111038569
H        -5.90096723765643    0.15198564071996   -1.41928954647468
H        -3.58183181306925    3.34489570011497    0.21878250789155
H        -1.83732244721234    1.73724537770443    0.91363353085590
H         1.74378507551254   -5.11160305000016    0.48520694495866
H         1.32427062621602   -3.87848630425380   -0.73339325633200
Cl        0.77286696431047    0.42735051065949   -0.12805031021097
