76
 energy: -111.714621669543 gnorm: 0.000809636603 xtb: 6.4.1 (afa7bdf)
Ir       -0.52272589651906    0.08894411369123   -0.43627973472964
C        -2.55170010433224    1.45678252532722    2.01637739869639
C        -1.24055592679658    0.90660428438749    1.57833766565840
C        -0.86976850442091   -0.47573833290409    1.69263422510562
C        -1.72879644150886   -1.54454984832279    2.28146500257433
C         0.54552392070673   -0.57642292711590    1.43433901756616
C         1.42125714300271   -1.73508300290287    1.77362744139332
C         1.01311243456600    0.71987732531015    1.06830759316420
C         2.43201857009345    1.11725236846698    0.86047909775187
C        -0.09685096689558    1.64165713618733    1.14635748039269
C         0.07177072920777    3.12342617375002    1.13676291847675
H        -2.59580290695640    1.41602772909460    3.10565008874700
H        -3.38033393558253    0.86899085407883    1.62841635782823
H        -2.67232726551931    2.48941928461041    1.70528627129399
H        -2.77560292595802   -1.37853032238722    2.04324224020791
H        -1.44105114920369   -2.52960264329434    1.92436650463307
H        -1.62319869679569   -1.53288182631381    3.36702380671335
H         0.84712120332614   -2.64711191034798    1.90840236494927
H         2.19130118078958   -1.89425615896544    1.02244832503448
H         1.92368283123601   -1.51543389098278    2.71704024459469
H         2.51683812875527    1.84874126445453    0.06025764179796
H         3.05423651547142    0.26006345577776    0.62006217036927
H         2.81022372714981    1.57490142696669    1.77565235241608
H        -0.88412568103823    3.63669320459607    1.14318162696618
H         0.63531260819149    3.44816523267386    0.26549424295796
H         0.62998856248548    3.42130161101792    2.02551513255204
C        -2.77086453868608    8.75552538157048    0.82883529406484
O        -2.94661766491960    7.38725764098504    0.47186838142097
C        -1.97897880901607    6.82536974000900   -0.25758944235917
O        -0.98235118910024    7.41598450485299   -0.61242837556347
C        -2.26123943764872    5.40345087290687   -0.58100907744164
C        -3.40818023963259    4.75727179691511   -0.12164770597261
C        -3.64401565955420    3.44269286573327   -0.47319038021524
C        -2.72812594381673    2.74340998478631   -1.26195562205659
C        -3.07356298178342    1.41005478093079   -1.78917561844314
C        -4.26285141811468    1.33171474915128   -2.52040785713392
C        -4.60244360979735    0.16921439255276   -3.18835114521339
C        -3.72244033503105   -0.89621796004841   -3.12687994796437
C        -2.57777790970934   -0.77668309401504   -2.34449231736164
C        -1.63090417283598   -1.84961675916920   -2.21696027183876
N        -0.62910052791228   -1.70126814361084   -1.42803148977606
C         0.33297360621215   -2.76971987628224   -1.32183447330347
C         1.68305427051811   -2.39313644750282   -1.94668258393713
C         1.61152252826362   -2.33367950505248   -3.47596074232311
C         2.97761640740491   -2.07518972636267   -4.04953263941466
C         3.76783500717291   -3.12053423251265   -4.50929774934375
C         5.03484620142117   -2.87854385567876   -5.01241589702890
C         5.52842724753230   -1.58557913942489   -5.05676289779114
C         4.74868349361718   -0.53700166913451   -4.59633448294084
C         3.48256535088132   -0.78138802463597   -4.09535400171622
N        -2.26826321822965    0.34975237562779   -1.65280297638789
C        -1.57745971734943    3.38721873197348   -1.71018373009591
C        -1.35211299688228    4.70917158789475   -1.37560186355332
H        -2.81129758053911    9.38521938946118   -0.06197014067863
H        -3.58582442170042    8.99564178856358    1.50574966600855
H        -1.80459932264250    8.89758773039618    1.31623485894122
H        -4.11199531055257    5.29381518232431    0.49404666721154
H        -4.54215318645514    2.95094992032786   -0.13114752971880
H        -4.89232222793521    2.20524633835403   -2.57582152578381
H        -5.51666416885737    0.10543759716071   -3.75665932777864
H        -3.90838316686527   -1.81230208627316   -3.66295396998145
H        -1.77739326290832   -2.75854313340916   -2.79242800611511
H        -0.05265528375358   -3.66783215972642   -1.81516406354200
H         0.48261990306948   -2.98572118349416   -0.26432578823541
H         2.41809392969588   -3.14199777445492   -1.64840343702655
H         2.00430353761366   -1.42113444892731   -1.57135466128720
H         1.22645770980059   -3.27849020480071   -3.86431492162328
H         0.93842926429695   -1.52685033906352   -3.76947461376987
H         3.39004858606947   -4.13306505222193   -4.48123794463162
H         5.63850631678596   -3.69966839826092   -5.37243178062040
H         6.51654367270983   -1.39563264461131   -5.45097813759464
H         5.12963694263790    0.47383219147972   -4.63147448307251
H         2.87467088063145    0.03753272517004   -3.74045405390012
H        -0.87830548659551    2.86339455248497   -2.34118677214005
H        -0.47490285407758    5.22798055856667   -1.73016531794902
Cl        0.69903563340623    0.94545035153614   -2.28090458044263
