58
 energy: -101.853263856306 gnorm: 0.000287746683 xtb: 6.4.1 (afa7bdf)
Ir       -0.18980208120723   -1.06652297052153    1.45160877882681
C        -1.87211002083926    0.43685352392598    3.97070103690096
C        -0.56890709062090   -0.00637020715923    3.40564403543667
C         0.06606977513120   -1.25985461353928    3.67274053444007
C        -0.43376827716644   -2.30538161855951    4.60716782781833
C         1.37607374278551   -1.23451491983273    3.06912238531527
C         2.46276393327876   -2.21815993832933    3.33465781764275
C         1.53527089657386    0.01671281178952    2.40303653604585
C         2.80297291392310    0.52865425499880    1.82036761061246
C         0.30875733634532    0.76833032893751    2.57199639431709
C         0.14205948041863    2.18840386038426    2.21988544883429
C        -0.12910143750048    3.11863011566554    3.22161620074544
C        -0.24027475907971    4.45430675105108    2.88343883180227
F        -0.49942779827147    5.34791295358021    3.85910836079862
C        -0.09450628212526    4.91073673762233    1.58543536264374
C         0.17271966395855    3.96166376555783    0.61406633412339
F         0.31729540790022    4.36763843842346   -0.66327961825806
C         0.29173316034507    2.61526610612683    0.90191316974227
H        -2.22201090533323    1.34428785719660    3.48766868114778
H        -1.74576571462996    0.63958301789576    5.03468134205473
H        -2.63018257551388   -0.33714319020858    3.87501405725188
H        -0.07960983405072   -3.29119866860176    4.31800265672877
H        -0.05663168767162   -2.09378293543571    5.60838554733685
H        -1.51888156082957   -2.31027783034367    4.64901192427545
H         2.94045468010333   -1.96126010545787    4.28093843017038
H         2.07355729463767   -3.22881542628402    3.41795721895412
H         3.21762398850577   -2.18962580760930    2.55542125990787
H         3.24560866248947   -0.19472996210923    1.13977981064247
H         2.63943619411423    1.45769555252418    1.28296768838591
H         3.51317564659746    0.71002377646016    2.62781987238984
H        -0.22758021556159    2.82165579454723    4.25263954776018
H        -0.18266694542345    5.95642646617621    1.34263416896956
H         0.48162903747929    1.91022864809957    0.10715786796946
F         3.25517575803024   -6.96131309217007    1.30037216753964
C         2.33615987156477   -5.98472472105606    1.18394085294212
C         2.72264935298165   -4.75576396947585    0.67179514921709
C         1.77980717260677   -3.75258757665475    0.56509830259525
C         0.45859206967494   -3.99068477117444    0.94595487014359
N        -0.48800080952470   -2.96595675699288    0.79709548514382
C        -1.60986851320816   -3.20770657670957    0.19424186792425
C        -2.52208151735812   -2.11333048346272    0.05525943910497
C        -3.73888914424913   -2.17188544117951   -0.62954617896281
C        -4.51647387458536   -1.03645598437299   -0.72471791578909
C        -4.04398305936614    0.13721292335863   -0.13734815637082
Br       -5.06192428988064    1.74345048972882   -0.21676178750520
C        -2.82250675646705    0.13578814222640    0.52466105821683
N        -2.08648244250533   -0.96235757082845    0.62814067253870
C         0.08894926447535   -5.23722569081036    1.45462802095531
C         1.03384854473044   -6.23726764743978    1.58499578620227
H         3.74381954877052   -4.60152939668429    0.36303502634206
H         2.03985671755660   -2.79149350548608    0.14925943771728
H        -1.83282104863808   -4.18032764733475   -0.22839501178286
H        -4.05625455377316   -3.09855422560137   -1.08077976974924
H        -5.46215939275404   -1.04737102241746   -1.24311755055408
H        -2.43752803313137    1.04061118392945    0.97130912310297
H        -0.92725230264951   -5.41157231871416    1.77240440701322
H         0.77448149975230   -7.20441684115152    1.98461393435686
Cl        0.54734130923952   -0.58086306657500   -0.75910935211152
