57
 energy: -90.864284066186 gnorm: 0.000271621297 xtb: 6.4.1 (afa7bdf)
Ir       -0.33330523942051   -0.92733226834161    1.43385732903175
C        -1.91636502754778    1.07207704164460    4.68308358629983
C        -1.08094954948575   -0.09092498062363    4.31776891344563
C        -1.35253409235298   -1.04841867207317    3.29398510233964
C        -2.72758981886281   -1.44418224219317    2.80834769877070
C        -0.20830744438013   -1.98277577051946    3.26652838619851
C        -0.36431921287173   -3.44494537164795    2.92189246663251
C         0.70460011729377   -1.51942928601480    4.29734888616194
C         2.03086833196981   -2.10079963480877    4.59908405667760
C         0.16286603788127   -0.39449793703904    4.91365136114993
C         0.81508196270767    0.42568377992043    5.96854294716131
H        -2.20053003415152    1.00611531293315    5.73354296055044
H        -2.81643825911467    1.13550756829651    4.08008572932074
H        -1.34180046650595    1.99052981145612    4.56534067705602
H        -3.42460144035847   -0.61390872015021    2.88109288366159
H        -2.70773928152195   -1.79455028943819    1.76626757066686
H        -3.10946137890247   -2.26691138241631    3.41373973490297
H        -0.94071474142248   -3.59075644964264    2.00552909700865
H         0.60471884988223   -3.92076628520478    2.79931687396889
H        -0.89513125720255   -3.95361199785911    3.72786303726020
H         2.81182182999235   -1.39273218276411    4.31955737750055
H         2.19157514126339   -3.03455251932187    4.07052420106707
H         2.12744123643753   -2.27701117341904    5.66957169878149
H         0.07828372667635    0.81655342647110    6.66594271350592
H         1.32945111557632    1.27137785125037    5.51185267744952
H         1.54815034867451   -0.15747875143735    6.51781799172022
C        -0.96272554158837    4.42850055794660   -4.97407552494400
O        -0.84429522827425    3.41552050201671   -3.97518102406321
C        -1.70269593343732    3.46227136474394   -2.96400993296122
O        -2.57148804451562    4.29233273602542   -2.83759548204597
C        -1.46773193453688    2.36399865471582   -1.97473544132799
C        -2.21811749744511    2.34533826111184   -0.79763153817306
C        -1.98640732988714    1.34351009660976    0.12830623852750
N        -1.08196736455575    0.39239766901160   -0.06153808582807
C        -0.35456081294055    0.39390617442342   -1.20013920071241
C         0.59950065666810   -0.67835933383234   -1.28743167909592
N         0.73996545629396   -1.43532350976068   -0.25049896599843
C         1.59986130094907   -2.53377168284028   -0.27118340788922
C         2.42674730118266   -2.76341942567220    0.83060475972094
C         3.27797330487710   -3.84941047640292    0.84440913938082
C         3.28984987395305   -4.72143846207748   -0.23639882114658
Br        4.45473739273101   -6.24627606227129   -0.20781052849796
C         2.46759792584726   -4.51109193504972   -1.33430862380115
C         1.62953844252138   -3.41346147860874   -1.35590835258242
C        -0.52351232588005    1.36748483850915   -2.18317828895244
H        -1.90964386319392    4.32238244721437   -5.50582354638408
H        -0.12353790716498    4.28274924798438   -5.64809106504258
H        -0.92447437049126    5.41715639673356   -4.51407281408511
H        -2.95964999341991    3.10872159171958   -0.62528914416388
H        -2.54118348936022    1.30362864614427    1.05367716616134
H         1.18459937396850   -0.81861235759115   -2.18951269397956
H         2.41439277767997   -2.06004868819725    1.64945654411416
H         3.93086635678529   -4.02287921899569    1.68455916075032
H         2.48423823596806   -5.19922354558268   -2.16428908030850
H         0.97319324662767   -3.25859785818628   -2.19845951648799
H         0.07471653146553    1.35113606951406   -3.07919826475799
Cl        1.26427800498876    0.63555390374012    2.01756005625133
