71
 energy: -105.936965020682 gnorm: 0.000430446168 xtb: 6.4.1 (afa7bdf)
Ir       -0.80939487150410   -0.85868579775706    1.36740091544203
C        -2.23135796374008    1.11472289868723    3.79926533992546
C        -1.03902415669997    0.42663688835155    3.22523042485494
C        -0.68207235096358   -0.92464941836557    3.58363723834943
C        -1.41545425194006   -1.76629237927457    4.57207668875194
C         0.64143342422663   -1.18502162746467    3.08384677520571
C         1.47771654408504   -2.36079159853917    3.45359303508955
C         1.04113399023114   -0.06107989448673    2.31270229106231
C         2.38782727093003    0.15892251370681    1.70964094261352
C        -0.00593041955643    0.95276550575290    2.40053134327576
C         0.19435740692334    2.36586014231044    1.92308516650631
C        -0.93797025946599    2.92047994281672    1.05153270399357
C        -0.56753226142060    4.31466351801168    0.55315216275072
C        -0.30852975384208    5.25233049951109    1.73028010242116
C         0.79873039425759    4.69782313534141    2.62308278020825
C         0.44362067519472    3.29883216162202    3.11960078961170
H        -3.12166715891316    0.49422482976470    3.72022971702274
H        -2.42069732633881    2.07017067729522    3.32460763999270
H        -2.04667392600943    1.29063107379882    4.85970603948391
H        -1.18216005325520   -2.81890027787347    4.44020021166457
H        -1.11630905018386   -1.47764454987383    5.58044695232439
H        -2.48988555726362   -1.62903002660990    4.48703536066354
H         0.87473653222456   -3.25690873800516    3.57363467962205
H         2.24479793219895   -2.55601663681995    2.71025387543367
H         1.96872173454672   -2.15231806749490    4.40478279427968
H         2.96350705872861   -0.76155140574280    1.69567516299255
H         2.30051780879616    0.53102028609619    0.69074371721951
H         2.93300819628711    0.89792338417678    2.29657994768247
H         1.09603504165392    2.37451668412921    1.30337108638197
H        -1.86460637920398    2.99389586272676    1.62149050067188
H        -1.09991666396309    2.25195335156232    0.20443750353719
H        -1.37301748711752    4.71117320240658   -0.06850601507101
H         0.32903859305924    4.25481586785082   -0.06792377072693
H        -1.22437806963008    5.36605515378412    2.31544369791474
H        -0.02696608276142    6.24059160891978    1.36167257205290
H         0.95525766228348    5.36032957733900    3.47712078543318
H         1.73263917427008    4.65960994366076    2.05726866460581
H        -0.44908281023233    3.35244549431936    3.74326811787986
H         1.25770165867072    2.90545512800727    3.73134429990910
Br        3.77710290235363   -6.60301524390709    0.61458789738029
C         2.28923085639725   -5.38808764890403    0.62259042494080
C         2.46747886516480   -4.08572708093878    0.17688537305610
C         1.39971034872668   -3.21013542994787    0.19269450379416
C         0.14763027531024   -3.64018795019187    0.63235064276872
N        -0.92828743642495   -2.74425865157647    0.62380967836785
C        -2.06076443646747   -3.09437207151547    0.09544494470616
C        -3.10413169497326   -2.12213211654617    0.10256129588266
C        -4.36629460658307   -2.29859682119216   -0.47576659265798
C        -5.26981872853376   -1.26387483372726   -0.45267780713290
C        -4.90142066325855   -0.04226370802540    0.13929130865870
C        -5.81181465878397    1.06982457394690    0.17223478744934
C        -5.67039872707887    2.36457913209418    0.63154536749284
C        -6.90027068283282    3.00512076980154    0.39733500892571
C        -7.70707427293770    2.06597968362110   -0.18361241828933
O        -7.06343507979046    0.90590940538329   -0.32359810705340
C        -3.62268747708448    0.05200378826920    0.70219101766984
N        -2.75987265956644   -0.95003518086680    0.69860877130964
C        -0.01846349530029   -4.95339139004722    1.07453007507097
C         1.05380813421070   -5.82467465277055    1.07825015242858
H         3.43212135987073   -3.76242296699175   -0.18004142536145
H         1.51124244557397   -2.19917580254323   -0.16813494252696
H        -2.19509368530852   -4.06021533513023   -0.37743935372450
H        -4.60851786915224   -3.24128563773449   -0.93872971542419
H        -6.25018764844635   -1.36896695956351   -0.88879512260040
H        -4.79894617595093    2.80355734472719    1.07001756490632
H        -7.15554625743170    4.01905840956501    0.62573054502195
H        -8.72186001651381    2.11214513662850   -0.52686026188785
H        -3.29845897090455    0.97070209837928    1.16429552393369
H        -0.97944124986113   -5.28225774511411    1.43877527730839
H         0.93152454118417   -6.83669994385313    1.42920426932202
Cl       -0.29078348009765   -0.17497608482769   -0.86440792474851
