59
 energy: -87.903331366171 gnorm: 0.000584314288 xtb: 6.4.1 (afa7bdf)
Ir        1.14054108684187   -0.14105677640374    1.66894307813710
C        -1.73913783236386    0.99836348116865    3.01813443107605
C        -0.40057087757349    0.37767557491467    3.17918366371987
C        -0.13272368233601   -1.01705119815841    3.30351999336924
C        -1.14594174125153   -2.10702308689178    3.25892426315989
C         1.26087272628639   -1.16947426207424    3.62069560104290
C         1.93735544011875   -2.43778562937563    3.98211276703535
C         1.85345069421847    0.15606550322956    3.73796140993145
C         3.21650450646157    0.45456578856640    4.24810062458708
C         0.82952898321528    1.11032660403970    3.46015913313004
C         0.93933609594195    2.58187553381666    3.60570271059836
H        -2.12157078270430    1.25872943867739    4.00628725581703
H        -2.44085590776896    0.31146111797574    2.55452949428763
H        -1.68973024910461    1.91289683846529    2.43250408623412
H        -1.91458798144290   -1.90101758171489    2.51857355774552
H        -0.68749693879217   -3.06249528762132    3.02366073739156
H        -1.62290021878459   -2.18582309981112    4.23595516236859
H         1.48721683997406   -3.29008742917783    3.48098075173979
H         2.99891780102875   -2.40254592068411    3.75326995402796
H         1.83394378741832   -2.58476156459971    5.05880392911858
H         3.58059747347739    1.40210930363927    3.86152875821471
H         3.92137725780950   -0.32792141040193    3.98331754159647
H         3.17657285175809    0.52362688295089    5.33582022883316
H         0.20641546358262    3.09957944688066    2.99404845324171
H         1.93427745022649    2.93121387408352    3.34357053611910
H         0.75521234274911    2.84278456164732    4.64902756493316
C        -4.81104713378835   -2.87030827190968    0.15615825354744
S        -5.36664992589157   -1.16539495472848   -0.14245487169696
C        -3.83320757341126   -0.35305390483371   -0.24376360465410
N        -2.74038463623442   -1.06927484394458   -0.06787142326440
C        -1.54496647464249   -0.48888130651195   -0.14573350264285
C        -0.38975830117125   -1.35716432569928    0.01840269728161
N        -0.46808446139766   -2.60587687635510   -0.04267156060482
C         0.50338838262038   -3.56315045722629    0.06161634970795
C         0.14893968784348   -4.84836745349397   -0.36940813892450
C         1.06064659520481   -5.87981461626664   -0.30766285789105
C         2.34267658390161   -5.67402856727796    0.19969824283018
C         3.31997183240860   -6.79755696809527    0.29650387230924
C         2.68607397103272   -4.39644191926841    0.64585487887441
C         1.78874159129474   -3.35444470319576    0.57943021633270
C        -1.39206974483189    0.87985482464244   -0.38703369001414
C        -2.53033308202180    1.64765266751207   -0.57229887129196
C        -3.78184683686372    1.04130126616209   -0.50568931143547
C        -4.95710765395550    1.79551835055854   -0.69556124469443
N        -5.90315572326611    2.42680121847682   -0.84991291512837
H        -4.01231688535218   -3.10008289686668   -0.53947468103814
H        -5.67655592995635   -3.50196251947223   -0.01286956186698
H        -4.46627401131842   -2.95909428159163    1.18010394531276
H         0.62850813454922   -0.76926446001235    0.06883902686580
H        -0.84110034935680   -5.00293306838258   -0.76646096061899
H         0.78007879160584   -6.86260411349543   -0.65503560865211
H         4.34117425468151   -6.43678752219695    0.20080652961200
H         3.22598923988876   -7.28380297101217    1.26805955283173
H         3.13094921819583   -7.54540585999626   -0.46927956619538
H         3.67368094149345   -4.22712197153406    1.04810089760306
H         2.08658443438650   -2.36897762348401    0.93504755228095
H        -0.41056755164541    1.32785795476354   -0.45068431665118
H        -2.46093644861342    2.70669737191632   -0.77093512231007
Cl        2.67616447556621    0.75372509964479    0.25826510674285
