64
 energy: -95.849506002622 gnorm: 0.000346279618 xtb: 6.4.1 (afa7bdf)
Ir       -0.59888561410441   -0.98592339341011    1.29685201962249
C        -2.17285523663827    0.96121242522732    3.64593815402548
C        -0.93941540624447    0.29585054401917    3.13945716353327
C        -0.57729341138820   -1.04885196642999    3.52115985755038
C        -1.34141217566752   -1.90071208216684    4.47559473446060
C         0.76918673256373   -1.29167829409201    3.08085200167110
C         1.60606737010782   -2.45104004424533    3.49528843958941
C         1.18861956660641   -0.15954170013947    2.32603016429947
C         2.55936187092691    0.08045588459399    1.79109936150309
C         0.12421011249171    0.83935473168408    2.36595419886518
C         0.32691987884490    2.25757663194196    1.90557884673580
C        -0.76215445194244    2.79954836296057    0.97311082287626
C        -0.38554322220247    4.20244940128211    0.50386693720924
C        -0.20752016366488    5.13714034462770    1.69810221619880
C         0.85411101246498    4.59340336174284    2.65076336399224
C         0.48998598600953    3.18731700784790    3.11959045400836
H        -3.04276220161978    0.31778295242096    3.53083917960565
H        -2.36229429716865    1.90783328665274    3.15340206908053
H        -2.04586491768817    1.15044406475020    4.71281186787427
H        -1.09208811220839   -2.95049749268114    4.35108043340110
H        -1.08394562142187   -1.61153890872034    5.49535087608774
H        -2.41282733048470   -1.77308231906789    4.35036301947904
H         1.01595395430357   -3.35943189957184    3.58138525727869
H         2.41925720725142   -2.62867473969708    2.79845838849523
H         2.03616030436220   -2.23303002291289    4.47335709128313
H         3.14921573628391   -0.83083657739242    1.80470834088793
H         2.51910198985714    0.45564489087857    0.77038451021043
H         3.06188265905610    0.82611739772187    2.40714623101466
H         1.26265413712735    2.28494140226435    1.33941756839315
H        -1.72205009235059    2.85667175363483    1.48665457978033
H        -0.86336456957447    2.13478447293237    0.11368730515800
H        -1.16241077936021    4.59050413870080   -0.15791635516805
H         0.54446603112516    4.16090115091965   -0.06751442807355
H        -1.15750190609515    5.23618793635354    2.22887595558328
H         0.08110811815077    6.13087695493753    1.35013936885956
H         0.95153420738912    5.25337513867929    3.51524050834552
H         1.81944778797524    4.57128169843657    2.13984173520666
H        -0.44003408332760    3.22626859525753    3.68687541401499
H         1.27066035037879    2.80251822878449    3.77829069663833
Br        3.97715886560847   -6.76890739156614    0.86332845618221
C         2.50559284443991   -5.53890329759127    0.77460804427363
C         2.72479072521368   -4.24118654060569    0.33248538229976
C         1.66773095346917   -3.35448893588893    0.27577282014756
C         0.38572738900742   -3.77060554820607    0.63607599144899
N        -0.67968249199825   -2.86580215188051    0.54687916880544
C        -1.77010615065891   -3.21211958806593   -0.06566705587446
C        -2.80534941510125   -2.22999969878196   -0.14560542934337
C        -3.99879843841580   -2.38909264506887   -0.85688146685422
C        -4.89737532710355   -1.34512894796818   -0.91533548052255
C        -4.56727997686078   -0.15880318765973   -0.25958982951038
Br       -5.74515697584044    1.33434647244321   -0.29620074918465
C        -3.37054778395236   -0.06204315630725    0.43706774186662
N        -2.51302986609857   -1.07214230370402    0.50195041011103
C         0.17778649662870   -5.07902681108485    1.07502921467209
C         1.23915444164319   -5.95964402601562    1.15493831964102
H         3.71382179813521   -3.93061775169337    0.03601487065497
H         1.81161403350930   -2.34725262380611   -0.08426681231207
H        -1.87484014967875   -4.17933605877781   -0.54275733296259
H        -4.19958910269690   -3.32015181444251   -1.36207180676296
H        -5.82604228059158   -1.43439217921156   -1.45656620859647
H        -3.10373433213242    0.85282525050130    0.94399935150070
H        -0.80781258472648   -5.39520528034542    1.37903719339830
H         1.08526432703121   -6.96756607363343    1.50512533620440
Cl        0.03327458105708   -0.29179902936452   -0.89931847887438
