62
 energy: -105.339434109893 gnorm: 0.000567411679 xtb: 6.4.1 (afa7bdf)
Ir       -0.33810489994957   -1.12616431608121    1.42937374462807
C        -1.95928511883652    0.58071838768497    3.88434771403780
C        -0.67841888606278    0.05466893063095    3.33623198001198
C        -0.10523439962257   -1.22271580251317    3.64857447279477
C        -0.66131346692385   -2.20014741107879    4.62567896851736
C         1.22173392528698   -1.26661728081880    3.08390871695689
C         2.25489130117300   -2.28804033552045    3.41004227164422
C         1.42288059532774   -0.07787700363661    2.33663345550256
C         2.70261189354030    0.36582198429545    1.72079609012684
C         0.22753354409969    0.74515870111288    2.47419441142316
C         0.14482123081399    2.16798068873502    2.09973359465373
C        -0.00268098231437    3.12156571896580    3.10584723774630
C        -0.03442588662291    4.45963654864719    2.76273521448891
F        -0.17312810832301    5.37587509264328    3.74338612346750
C         0.07122381804974    4.89696640324894    1.45448899703187
C         0.21130956769406    3.92502529980296    0.47927672977492
F         0.31280558384609    4.31440859747185   -0.80823824942446
C         0.24922719046994    2.57502573304103    0.77255102549302
H        -2.25334031812018    1.49814884857211    3.38234045517179
H        -1.82714826426298    0.79493309201242    4.94525199194600
H        -2.75879518407527   -0.15142353648309    3.79670909273819
H        -0.32140589691923   -3.20827956128396    4.40579292722314
H        -0.31674188411500   -1.93884460985312    5.62678014636990
H        -1.74724262559102   -2.18021765736700    4.62627489116799
H         2.73037525671528   -2.01062116473196    4.35155356757287
H         1.81621096552807   -3.27491937664003    3.52910547688439
H         3.02211103346747   -2.33541288727541    2.64358683663753
H         3.25999897328429   -0.47864197156168    1.32371019642546
H         2.52520284585056    1.07821226518971    0.92041419351860
H         3.31436110684062    0.85092424923080    2.48242171012206
H        -0.06956681657837    2.83690920505958    4.14305254604209
H         0.04612924944002    5.94494621376840    1.20698896532744
H         0.33964998627772    1.85314516928788   -0.02436123388846
C         2.27428045203699   -8.15995437775004    2.46272587221956
O         1.22843207676343   -7.22196641244555    2.27594033851947
C         1.49208413624745   -6.05689155179836    1.65951428264986
C         2.74135614875379   -5.68029171528395    1.16486832304706
C         2.88956551225186   -4.44100364140795    0.55991207944855
Cl        4.44529297279237   -3.98791687049870   -0.06465014775407
C         1.83602530181002   -3.55400221568620    0.44751238213408
C         0.58642028441383   -3.94212498887850    0.93239191606687
N        -0.48495369909660   -3.04349662617801    0.81427974742956
C        -1.60705048132662   -3.41831617169184    0.29081749255501
C        -2.62752723730366   -2.41418928096392    0.19155111786119
C        -3.87217149685161   -2.59517816783925   -0.41094514376853
C        -4.74606901576006   -1.52498933029771   -0.47864221947584
C        -4.34702671711431   -0.30043934133818    0.04568432167946
C        -3.09526791007182   -0.18919834924853    0.62761202788191
N        -2.25821416721586   -1.21832283816502    0.71595202351846
C         0.40848450838694   -5.18189178804446    1.52759400881312
H         3.07839949044413   -7.73897914729858    3.07116754489975
H         2.67358075577606   -8.50397693152632    1.50565276350539
H         1.82070965533323   -8.99737358407044    2.98843066009409
H         3.59502710443633   -6.33165067417928    1.24157685123339
H         1.95389794405362   -2.59809430388584   -0.03554708558518
H        -1.75394867379812   -4.42065887742950   -0.09413068294972
H        -4.12998928899620   -3.55838932266355   -0.81997366254505
H        -5.71621523996693   -1.63662338383282   -0.93653122089136
H        -4.99461770796926    0.56016263254882    0.00662390909242
H        -2.75262913336513    0.75140143750307    1.03336520484971
H        -0.54845949751868   -5.48194740596318    1.92295984618255
Cl        0.22141659345858   -0.58726998635927   -0.82890281284756
