65
 energy: -105.282632484341 gnorm: 0.000430966860 xtb: 6.4.1 (afa7bdf)
Ir       -0.52829192539822   -1.40768855345306    0.99502915814218
C        -1.57260300700189    0.94366466409314    3.32387490702603
C        -0.49914147943135    0.10034510929610    2.72720443168488
C        -0.17892557265755   -1.23205284220473    3.18260923056172
C        -0.83553154529848   -1.92112281817688    4.32988706160287
C         1.07262937873692   -1.61848947173678    2.58064321607102
C         1.89778550365297   -2.78481455732574    2.99904622948687
C         1.44530139831539   -0.59965032138859    1.66173754054436
C         2.72353471330113   -0.49145105854470    0.90638284472332
C         0.46832097258380    0.47383725637491    1.75753782882193
C         0.65669171416135    1.80800698807702    1.11663025057826
H        -1.29269965356850    1.18194230120596    4.35060134395588
H        -2.52329706266934    0.41663927326142    3.35175939828828
H        -1.70547002570669    1.87292601355219    2.78006065578716
H        -1.89784171904205   -1.69728075268991    4.36546562813824
H        -0.69857365984885   -2.99716490420463    4.27311016803938
H        -0.38407042878375   -1.57256467297314    5.25961505817766
H         1.27974321675385   -3.63772516210115    3.26511265368376
H         2.59184192141782   -3.08165167828306    2.21822103515911
H         2.47655023791761   -2.49891290549116    3.87804858862399
H         2.54619587386098   -0.10081522610757   -0.09313831004284
H         3.22114948954359   -1.45296261746451    0.82268026862393
H         3.39046162495008    0.19917285842926    1.42413267117659
H        -0.16171006317342    2.48413735751385    1.34519990368548
H         0.74300611865649    1.70729144607567    0.03571660590520
H         1.58332270734779    2.25074656578823    1.48154613665972
C         3.45016353398731   -8.34029589575611    1.25507016025277
C         3.49945021129002   -7.04128906215108    0.52749332814056
C         4.57954296916221   -6.67110800659843   -0.19983590299566
C         4.66190067142090   -5.41343265282270   -0.90970214039703
O         5.60810851615659   -5.03928333317336   -1.56781982521123
O         3.58253041156622   -4.57707551775566   -0.81817381322430
C         2.47780267994274   -4.91681309002135   -0.11552140739352
C         1.43451197394315   -3.99520768845222   -0.10352946699975
C         0.26557063430599   -4.28985807390139    0.58319436843105
N        -0.78471391449571   -3.36488889795464    0.57293113738829
C        -1.99508851323291   -3.76393634516843    0.32592052087071
C        -3.00860406604443   -2.76033255826094    0.27506736917744
C        -4.35777310320233   -3.04708845006397   -0.01975421862765
C        -5.25321776968484   -2.02151685877091   -0.11041611413726
C        -4.79331067735120   -0.69049951119675    0.01677983047726
C        -5.65167531192233    0.41190767759401   -0.14440429093296
C        -5.15430633051612    1.68902733649500   -0.08046069372523
Cl       -6.20427623177588    3.04808946315014   -0.28876389028981
C        -3.78086754076351    1.91247913248344    0.12593745157599
C        -2.93415191225224    0.85572635099831    0.31329587847928
C        -3.41029536989231   -0.47020320406914    0.28901828550464
N        -2.56277033986327   -1.50928880379600    0.48516351518629
C         0.14889583606696   -5.49961615505106    1.28193517617264
C         1.19009480088242   -6.39669011323388    1.28364267772605
C         2.37448323124527   -6.13424522326446    0.58168802908216
H         2.62073581888071   -8.94465897678825    0.89240042243937
H         4.37393906964600   -8.89195987755732    1.10897866225677
H         3.30798722519114   -8.17053740990851    2.32069940443610
H         5.44914348303077   -7.30263315990487   -0.28908880836221
H         1.52877149418735   -3.07520380051173   -0.65871390388297
H        -2.21953968044215   -4.79828080574224    0.09310234670817
H        -4.65510493209095   -4.07316540517633   -0.16060779252409
H        -6.29857512974513   -2.20440699414847   -0.30374246740791
H        -6.69822833725149    0.23807129583887   -0.33700954120064
H        -3.40825342487228    2.92397796508686    0.12450888701291
H        -1.87440539998838    1.01451305558150    0.42526320516497
H        -0.75076018014397   -5.71088888387767    1.83814445636123
H         1.09247277723841   -7.31968992598036    1.83051883045601
Cl       -0.15690090121705   -0.93045488769185   -1.31628817110327
