62
 energy: -98.824094375573 gnorm: 0.000645269993 xtb: 6.4.1 (afa7bdf)
Ir       -1.25746464882085   -1.68186699677285    1.03242888318909
C        -2.33365705480172    0.77321765639266    3.16743405572334
C        -1.24547349302521   -0.11419170032732    2.66784188016696
C        -0.92994682862428   -1.41435372702212    3.21336150580787
C        -1.61106362066520   -2.04375578717147    4.38064118235725
C         0.32638059321292   -1.83725992947618    2.65236905822186
C         1.12800719100005   -3.00233236354183    3.11784862567569
C         0.71283775179302   -0.87706881818517    1.67759222684653
C         2.00894628711996   -0.81662052680264    0.94408400953558
C        -0.26089897582342    0.20461508647273    1.69759561044531
C        -0.08220866610324    1.49636108746913    0.97465142190140
H        -1.99051247811528    1.26952388975675    4.07620821995293
H        -3.22656654077659    0.20468611457393    3.41452501031029
H        -2.58700241593788    1.54145195359261    2.44218217891795
H        -2.67608041389751   -1.82927920188350    4.37871920744033
H        -1.46757162901869   -3.12051296307921    4.38411044889925
H        -1.18726000743709   -1.64341165282315    5.30243869080277
H         0.49081229656487   -3.81447212075321    3.45617136490267
H         1.77843586540440   -3.37916696676519    2.33361433314280
H         1.74987829109996   -2.68659662157701    3.95617384744827
H         1.84895691828694   -0.52403568579757   -0.09194794656869
H         2.51964963046686   -1.77499714657363    0.97351328652621
H         2.65156850541490   -0.06813224051992    1.40864646434603
H        -0.97367790005328    2.11346276311469    1.03229777933131
H         0.15179125934344    1.31881982847626   -0.07295769524789
H         0.74989066029698    2.04455853847720    1.41708577251998
C         3.03709879745103   -3.81775593809454   -1.75280724811944
O         2.94461945736875   -4.92858678780698   -0.87634154628759
C         1.81428262574398   -5.10623701888341   -0.16800130080680
C         1.76085238280526   -6.26565276991504    0.61776506554640
C         0.63215538406768   -6.54150868934978    1.36158402711856
Cl        0.58053955201506   -7.97994361542653    2.33066575413290
C        -0.46879921778471   -5.69690702061806    1.34807595650012
C        -0.39818327295063   -4.53542503190385    0.58588897734300
N        -1.47521481770666   -3.63634970713822    0.56370670487580
C        -2.66070133410415   -4.03936503308428    0.22867101962280
C        -3.68773576838305   -3.04823069286125    0.19917109691475
C        -4.99958526007096   -3.26526165109908   -0.23750642721190
C        -5.88058081912811   -2.21161730640567   -0.28926678296404
C        -5.44125361310217   -0.93244286125363    0.09393713498259
C        -6.30111615373828    0.21891903568056    0.05245160431878
C        -7.60728316462242    0.37213757164628   -0.36791005816019
C        -7.92519664926565    1.73100797470808   -0.18754603499688
C        -6.80154907409389    2.31396676285480    0.32811746881550
O        -5.82327035645967    1.41691274958197    0.47472003584761
C        -4.11591882422047   -0.80040124198113    0.52897054476590
N        -3.27075205505322   -1.81495484690305    0.58953028712653
C         0.73474428081472   -4.22780159504540   -0.16345633399088
H         2.24801155998118   -3.84427509935953   -2.50823495081690
H         2.98970066753317   -2.87420116977588   -1.20482343105804
H         4.00751616688629   -3.90994598268287   -2.23564924913069
H         2.60996001997311   -6.92818671095129    0.62081795652796
H        -1.34364023427982   -5.92398012807350    1.93361789623904
H        -2.85192293120682   -5.06433185453410   -0.06624195276306
H        -5.29705435594737   -4.25626410065715   -0.53888967001142
H        -6.89293455945002   -2.35943073037439   -0.62601325287620
H        -8.25523837660543   -0.38473515758303   -0.75837308284744
H        -8.85588256044612    2.21084180919563   -0.40885215519231
H        -6.59191889710355    3.32433234160457    0.61921014226938
H        -3.74964985080828    0.17006423040151    0.82769670529158
H         0.72777872834082   -3.32435088878496   -0.75174664587806
Cl       -0.96899005336593   -1.23813731436755   -1.29801867773129
