77
 energy: -132.707399809530 gnorm: 0.000349122819 xtb: 6.4.1 (afa7bdf)
Ir       -1.09220913538456   -0.45152255280889    1.13091352528870
C        -1.96254185873728    1.84088672357657    3.59062604910191
C        -0.96080083285219    0.93667826912323    2.96747993931480
C        -0.80482463860828   -0.44663983932898    3.34323131162398
C        -1.58318292409883   -1.13068074363237    4.41535005582468
C         0.41298249746756   -0.92770215163429    2.75735390262869
C         1.11291582352716   -2.18905175499911    3.12125816598678
C         0.92579546482439    0.09193293294046    1.90366978951127
C         2.25967031580585    0.05902047775931    1.23985228686601
C         0.07791702439750    1.27006921867341    2.05419457502127
C         0.45295220099383    2.60232477183926    1.56908596253716
C         0.40368979578719    3.70193066851481    2.42535651331796
C         0.82138979730391    4.93487077330585    1.96347319449995
F         0.74891350818843    5.99081369898563    2.80255165928866
C         1.31116885349290    5.13182354422537    0.68628062241175
C         1.35280096829320    4.02171047058866   -0.13852883432378
F         1.81610011735291    4.16925479661113   -1.39722969190817
C         0.93507366168187    2.77024979581564    0.27104770569828
H        -2.04651013044978    2.77740585186456    3.05005180718586
H        -1.64927265414792    2.04889785659792    4.61506622943674
H        -2.93999612179987    1.36736965716699    3.64066643311597
H        -1.52963855394049   -2.21029209133871    4.30999462877257
H        -1.16377881280997   -0.86391527532440    5.38597529920455
H        -2.62472820475709   -0.82289880930743    4.40338560790799
H         1.75709070220156   -1.98608358504826    3.97820477795966
H         0.41325690003282   -2.96962495542063    3.40535010480806
H         1.73323527035565   -2.54918524331587    2.30594076492916
H         2.19317329973161   -0.33723414257055    0.22801848610457
H         2.67278866685205    1.06287573485985    1.17763174471887
H         2.93963917672502   -0.57480649557949    1.80317178508193
H         0.07806674289909    3.60921761485054    3.44735307021125
H         1.62545938564184    6.10312202604440    0.34496957951855
H         0.94899594340868    1.94875848499067   -0.42706507492758
C        -2.61473295375084    8.23583517242590    1.99159125560011
O        -2.99611731078561    6.87053514895116    1.84554823754648
C        -2.33304786061673    6.15552643090285    0.93690068643514
O        -1.44698143001168    6.60709228053255    0.24460379627003
C        -2.78799527266741    4.74232878675609    0.87622811110465
C        -3.84886376495789    4.27044152646198    1.64773308447716
C        -4.23119872973492    2.94698037499898    1.55178750521236
C        -3.53931342877402    2.06565710093189    0.71636769239865
C        -4.01768494863223    0.68376406325205    0.54782055817574
C        -5.37860348457509    0.51263750173526    0.27031496325543
C        -5.88826060310617   -0.74306550414859   -0.00505980357716
C        -5.01386302602516   -1.81562977784978   -0.01104692414634
C        -3.67622603198276   -1.59154110523426    0.30344662067186
C        -2.70752691333616   -2.64771358397916    0.30402439121239
N        -1.48854592397240   -2.35259538448585    0.61373551648772
C        -0.51499932878407   -3.36698436157535    0.60834520262041
C        -0.75820814103274   -4.57783218990945    1.26073868485322
C         0.19582488469383   -5.57976252592215    1.23608137754801
C         1.38623939253194   -5.39216287377098    0.55519241182965
C         1.63437252857038   -4.18192140948353   -0.09059524383814
C         2.91986889256132   -4.01118701037306   -0.82199767602219
O         3.67366516836749   -4.92322941037287   -1.07318618375752
O         3.16483302472103   -2.75165041258778   -1.16677230229583
C         0.68929594961871   -3.16364698192510   -0.05841029445662
N        -3.18291929584500   -0.36135883032762    0.60529086875258
C        -2.48327222415969    2.54209834040480   -0.05690727950008
C        -2.12542222795320    3.87415781666025    0.01332311435947
H        -1.57996268862928    8.30053973761482    2.33366292100329
H        -2.70349829968869    8.75777350657776    1.03710371660511
H        -3.29102773558314    8.65854271255448    2.72877517712874
H        -4.36854002135593    4.94512598994247    2.30848106322435
H        -5.05539645586661    2.58817545484349    2.14883415668514
H        -6.01421814449440    1.38313892724744    0.25002514769279
H        -6.93521824401233   -0.87818680303633   -0.22589762697600
H        -5.34585411562650   -2.81249369887031   -0.25045287349304
H        -2.98956686253015   -3.65087884236714    0.00420913121595
H        -1.68224915179360   -4.71863671218878    1.80057531964118
H         0.00754774340531   -6.51108385886623    1.74625917895539
H         2.13689926189510   -6.16569435786214    0.51259951246947
H         3.99634533045672   -2.67198381477473   -1.66795919967247
H         0.86427892318435   -2.23675493047493   -0.58064953134162
H        -1.97433211489194    1.88506089508830   -0.74261594152384
H        -1.33372073076722    4.26757180583778   -0.60394710733525
Cl       -0.60322988312198   -0.13794992222977   -1.18865339231611
