76
 energy: -103.610129640349 gnorm: 0.000542192288 xtb: 6.4.1 (afa7bdf)
Ir       -0.55959501033456   -0.85184651656875    1.71169648217832
C        -2.52877617571629    0.91013950202616    3.91659820763795
C        -1.22017945848975    0.28760487805187    3.56558978562231
C        -0.89655735019496   -1.07513842686065    3.90909959760808
C        -1.78464236902490   -1.99613573017452    4.67481667820372
C         0.50871155347236   -1.27109522920478    3.67530562084419
C         1.31126966759687   -2.42681651540763    4.16702605708453
C         1.01857421950879   -0.08400927740017    3.07788397302953
C         2.45478492746439    0.20911246689681    2.79972592974723
C        -0.05972748987719    0.89518094809542    3.00872878242905
C         0.18881740136120    2.34292565409189    2.68027475072908
C        -0.75541005695867    2.94796922811045    1.63618293919110
C        -0.31504385793878    4.37387710918265    1.31534638270639
C        -0.32157078729025    5.23189370910734    2.57842476177839
C         0.58468573853199    4.62298406686910    3.64562568046064
C         0.16288589037392    3.19049074089339    3.96265027085884
H        -3.36010969918780    0.27707618739667    3.61257036878873
H        -2.64458749048673    1.89386294450978    3.47644196439270
H        -2.57720430961560    1.01505101840041    5.00128425265238
H        -1.53955026370701   -3.03605228684862    4.47971591379430
H        -1.65396814637795   -1.81312306178609    5.74186416341051
H        -2.82957079246105   -1.83250500854926    4.42903623494814
H         1.70593817009260   -2.17473360054954    5.15253704814384
H         0.70018093995192   -3.31866244314192    4.27324813811678
H         2.15456124778102   -2.63966284223426    3.51602395001205
H         3.05886661341600   -0.69030220411753    2.87286901494752
H         2.57972605331596    0.63420307669027    1.80553166696273
H         2.82458893183727    0.93127327598713    3.52779699442254
H         1.19661137012238    2.40850039767668    2.25992525021890
H        -1.77825784166780    2.98253642082529    2.01230869048935
H        -0.72927934137410    2.33653514916128    0.73292312920523
H        -0.98112664416600    4.80895604299232    0.56730188702765
H         0.69090513620061    4.35845504271175    0.89034438865308
H        -1.34101297447524    5.30485294871444    2.96516825848534
H         0.01507583596785    6.24321070101848    2.34180516060065
H         0.54446757951717    5.22641278080461    4.55480870068114
H         1.61702156266020    4.62994775105857    3.28808072083962
H        -0.84156271885970    3.19510686424627    4.38683162518913
H         0.83864639817081    2.76113526645326    4.70471899650216
C         6.86030934275752   -3.73343880307895   -0.23244968119365
C         5.54535809849322   -4.37169014347793    0.20161930062606
C         4.38131004760818   -3.38683424601093    0.10850561034395
C         3.06206927100053   -4.00686741967770    0.56630471682635
C         1.90394961908803   -3.02558729065637    0.40463545322219
C         0.58650659635311   -3.61980690540807    0.92015198611107
N        -0.48789829190963   -2.67104187436864    0.77736212993145
C        -1.40152053664542   -2.88350748919819   -0.10517382865466
C        -2.41994830355468   -1.88722636629533   -0.26037637975391
C        -3.44316918044353   -1.94481429118244   -1.21117828929597
C        -4.32754702057843   -0.89608096564287   -1.29887750173021
Br       -5.75047058606406   -0.89366696876673   -2.55810106575054
C        -4.18730226506120    0.21809353531349   -0.44089324890881
O        -5.06153827253011    1.20653849605066   -0.58282539394636
C        -4.95392449982046    2.36934402360902    0.22541902944694
C        -3.14926328750860    0.17761446874833    0.49186233328589
N        -2.29798585782356   -0.83935899344420    0.58349895970012
H         6.79562028930832   -3.38469087495585   -1.26121957717458
H         7.67470886518458   -4.45132679881967   -0.16597549625763
H         7.10177068182672   -2.88263779741949    0.40138454229628
H         5.64042195067716   -4.72845562953189    1.22985062851507
H         5.33951446125551   -5.23820555707685   -0.43109679280199
H         4.28299110649377   -3.04637712963894   -0.92445883175033
H         4.60559679487573   -2.51095150421582    0.72119611278919
H         3.15122855749123   -4.31107565097267    1.61134005685569
H         2.86560859418170   -4.90516048736584   -0.02236011636655
H         1.78771858887311   -2.76594074578865   -0.64830427157785
H         2.11901645157870   -2.10183556516817    0.94306774252452
H         0.35858932069682   -4.53436880553056    0.36392288048473
H         0.69315169179137   -3.86757922319794    1.97739997023969
H        -1.40502031451760   -3.77126859443182   -0.72848163673903
H        -3.52654380810255   -2.79417396513097   -1.86964659220415
H        -3.97611591101115    2.83971751810740    0.10475323928466
H        -5.72994074083200    3.04079780544056   -0.13537405391961
H        -5.13707884182732    2.13013973710503    1.27487929292988
H        -2.99608015774549    0.99405070352228    1.17876164848737
Cl        0.39205108731893    0.03771076943480   -0.29294529447162
