55
 energy: -84.694527282445 gnorm: 0.000644087720 xtb: 6.4.1 (afa7bdf)
Ir       -0.98042949485175   -1.12671960344491    1.26575265579563
C        -2.28785537412928    1.21606052861324    3.40780434222519
C        -1.15390120612224    0.35426937828691    2.96568887765635
C        -0.87280287258362   -0.96840968000091    3.47998483164618
C        -1.65398516240985   -1.65463880843635    4.54870972419905
C         0.43432910540926   -1.35160311119494    3.02088013421534
C         1.20032022241288   -2.53720384458814    3.49586610010363
C         0.90262586034820   -0.33739355348639    2.13586956661966
C         2.26766972314694   -0.22075390187118    1.54732909832032
C        -0.07591085582429    0.73659526038550    2.12738083450374
C         0.15145130587065    2.06491277762993    1.49248954943431
H        -1.99935482881730    1.72833085555769    4.32671661964524
H        -3.17549843609757    0.62586885482479    3.61927547409797
H        -2.52514628495437    1.97395026052604    2.66568695045294
H        -2.72110428590539   -1.49172601932302    4.42460108897576
H        -1.45884515511134   -2.72298999809796    4.55410398949196
H        -1.36176820999307   -1.25163823718468    5.51914424672729
H         0.54724091817506   -3.38537239001109    3.68315621188829
H         1.96031136396664   -2.83313193770418    2.77841382419292
H         1.69729855829106   -2.28007929809778    4.43187303608178
H         2.21654795491011    0.17533782874537    0.53567350546535
H         2.77435458251028   -1.18096275314439    1.52747610172186
H         2.85959490425845    0.47038851969434    2.14812620101467
H        -0.74349334641556    2.67905092990011    1.51871078886518
H         0.46157307507855    1.94611451037084    0.45617751068979
H         0.94823611947385    2.58473912024711    2.02494849240773
C        -7.73761583765527   -1.38580443152120   -0.90883904004135
O        -6.65372775090674   -2.30488991149402   -0.92226750073381
C        -5.48634696967692   -1.95260087220234   -0.39741838019400
C        -5.18850597218767   -0.71068731662545    0.18614887940088
C        -3.92921430396404   -0.49047678769950    0.70319849303717
N        -2.96238502152175   -1.40278374191174    0.69347058236658
C        -3.22337493880093   -2.60230775646797    0.11079285368939
C        -2.09295507588381   -3.48598158270042    0.08561536875276
N        -0.98176765093241   -3.02438797080926    0.56230287509187
C         0.16920699673454   -3.82481242961579    0.55831743822244
C         1.35168716052599   -3.31884723658162    0.01942782649636
C         2.49279701196164   -4.09683803349814   -0.00039473730248
C         2.45502136543299   -5.37640424835493    0.53657100867471
Br        4.04328923898148   -6.45691878384711    0.52358884845134
C         1.28823431815691   -5.88775170501409    1.08579618687435
C         0.14267691041891   -5.11511688835644    1.08815159392081
C        -4.45989267432453   -2.90634933821428   -0.43299672824335
H        -8.00711280966998   -1.11314949959742    0.11377940909575
H        -7.50101431546470   -0.49062676561430   -1.48784673258129
H        -8.56698310697837   -1.91203997578899   -1.37607806298797
H        -5.91956696600946    0.07831363149629    0.23802282269288
H        -3.68831017049744    0.46304720696301    1.14759429544666
H        -2.16001321235589   -4.47152657575029   -0.36006200265970
H         1.35166682205230   -2.32936764158037   -0.41049735455747
H         3.40498146774207   -3.71496952816074   -0.43051385083958
H         1.27610158367001   -6.88132821028303    1.50400389317130
H        -0.76651082003853   -5.50102250736697    1.52240534981532
H        -4.64115939459587   -3.86303961342440   -0.89359876407655
Cl       -0.64182206491388   -0.41941317412266   -0.99628732742104
