80
 energy: -113.173883799636 gnorm: 0.000362597852 xtb: 6.4.1 (afa7bdf)
Ir       -0.33038783715586   -0.58203511555942    1.46493270383525
C        -2.08837680562079    1.12216537818751    3.85080189282279
C        -0.79634863625607    0.52374421655972    3.41239628442324
C        -0.39265109113520   -0.82778712620077    3.67115313941568
C         0.99005731645851   -0.96090853714017    3.27451740577832
C         1.89049951074336   -2.08213229296223    3.66912202470359
C         1.39091398411299    0.25450737701739    2.66071850164277
C         0.27659684717055    1.18674983902088    2.74516638074458
C         0.39143619070889    2.62977189763135    2.49305968430967
C         0.06925252362327    3.53576882324509    3.50373922342606
C         0.22959345907717    4.89251700820364    3.30607567272683
C         0.70975277283272    5.38900908103507    2.09498865800613
C         0.89104080555242    6.83367985402557    1.89044609898083
C         2.00326155518626    7.31695151283524    1.20312141795379
C         2.17960478786022    8.67520727285279    1.01415949604323
C         1.24568019178912    9.57418145032575    1.50321839885207
C         0.13545069353490    9.10540946949036    2.18663657544643
C        -0.03962453381425    7.74761535637353    2.38141103764096
C         1.02208980705972    4.47965291161945    1.08498196726631
C         0.87186721505220    3.12204084066010    1.28034070192084
C         2.77135892981922    0.62330208280804    2.22985799947274
C        -1.15684571329315   -1.80430705649067    4.50168036998129
H        -2.05724350750846    1.28192141931962    4.92917286575400
H        -2.92315463150189    0.45627615202079    3.64242274029232
H        -2.26615579163504    2.07506248311123    3.36104782350936
H         2.41750884208477   -1.79393677994688    4.58033812227162
H         2.63334727255048   -2.28995124247272    2.90482338061111
H         1.32845857899827   -2.98657179239603    3.88277538648511
H        -0.27262471041769    3.17421099731423    4.46091774414642
H         0.00370474404737    5.57664980266676    4.11020593728779
H         2.74613604057749    6.62549269745061    0.83301363989898
H         3.04981590588186    9.03546681263918    0.48444870173482
H         1.38382259595821   10.63491883270810    1.35336961870482
H        -0.59719785567926    9.80204749390342    2.56805237620661
H        -0.91618718585980    7.39206228712266    2.90321206170157
H         1.37288183522930    4.84191678023880    0.13040372332061
H         1.09995494492860    2.43664154897374    0.47866494405213
H         3.49225329496894   -0.11862329038180    2.56060674119210
H         2.83496562330149    0.71124715149299    1.14619533111157
H         3.03519927876882    1.59243454774481    2.65083091145507
H        -2.22732232285334   -1.65563491899341    4.39087714653362
H        -0.91598400055447   -2.82929854358960    4.23291481184963
H        -0.90213151831951   -1.66079777180114    5.55248918135252
C        -1.66417341574534   -2.82723466714610    0.33029886564687
N        -0.47654408105593   -2.50667289158421    0.70834615688815
C         0.62444046530716   -3.44674025887916    0.63969881185348
C         1.86966989961483   -2.77640017307433    0.04411664378595
C         3.11739097650728   -3.63494658408690    0.29165706190437
C         2.76981535044611   -5.12421259719676    0.37995408339680
C         1.62590739801664   -5.44069137623305   -0.57495433660682
C         0.32880635298157   -4.73030863715251   -0.15209412524699
C        -2.66990154088881   -1.80134332348131    0.30853254007982
C        -3.99352736105202   -2.04343831087683   -0.10540712447306
C        -4.86848956337626   -0.99619400868188   -0.17856884944042
C        -4.40600207701147    0.31093634135008    0.08332423315158
C        -5.23131505922035    1.44413423191517   -0.05711394846552
C        -4.73075922358999    2.70216679563066    0.14360570382452
C        -3.37877808523002    2.87544944670106    0.47959013139448
C        -2.55603901067931    1.79531638695119    0.65272852098883
C        -3.04631291802945    0.48730094257518    0.47962909023861
N        -2.23289490886646   -0.58433044191214    0.65312443054132
H        -1.92775431370424   -3.81781999405315   -0.01650522675774
H         0.85435368211824   -3.70736284247851    1.67966535175545
H         2.00490172647134   -1.78233803146595    0.46917117447092
H         1.70237392692732   -2.64578764655821   -1.02475088081192
H         3.81800027179314   -3.46908156294956   -0.52743934498289
H         3.62085487534990   -3.32898392088186    1.20972922990238
H         2.47935891732724   -5.39253732108306    1.39731627437273
H         3.64508397241410   -5.72256941632535    0.12526297060226
H         1.91486643407388   -5.12179728371699   -1.57751886726229
H         1.45172947975467   -6.51641049880437   -0.61335323848910
H        -0.27609954015812   -5.40432289622868    0.45688741583791
H        -0.22728148481629   -4.47940873355028   -1.05651618118408
H        -4.29264834551859   -3.04985158152137   -0.34759795479505
H        -5.89893676754115   -1.14670474535936   -0.46126708778627
H        -6.26123277777316    1.29754172752302   -0.34401938942751
H        -5.36520953554386    3.56683509214531    0.02712442318981
H        -2.98203978580290    3.87173754335704    0.59632238812975
H        -1.51043214647468    1.93447720359922    0.87313898064861
Cl        0.37761180670728    0.16943012283363   -0.69174575171134
