57
 energy: -87.638642006376 gnorm: 0.000605204476 xtb: 6.4.1 (afa7bdf)
Ir       -0.51968816074340   -0.97830419727712    1.63017695219468
C        -2.73270472997697    0.97782529140105    3.39491054835591
C        -1.43691536737876    0.24810386631571    3.30361927910075
C        -1.22787822187038   -1.11613775531205    3.73804550123895
C        -2.26135121510888   -1.98393809911327    4.37119403664960
C         0.18888739863779   -1.36256920139921    3.75494043337870
C         0.83990788148087   -2.53546080969992    4.40254752414442
C         0.83988232632110   -0.21203244960379    3.21594104456476
C         2.30187049980018    0.08009346232847    3.21115349245609
C        -0.17624894105765    0.79653372859129    2.95874654688251
C         0.13268904424877    2.20689413063045    2.59428625218172
H        -2.86865240542488    1.31398874825982    4.42385965909561
H        -3.57364500125203    0.33640388427213    3.14333881891832
H        -2.74292613094522    1.85679243983581    2.75587382956465
H        -3.24902340171182   -1.78062345230842    3.96853360702408
H        -2.03481593707769   -3.03683876678365    4.23024567111848
H        -2.28488168439782   -1.78413268018228    5.44312419254708
H         0.22650897867095   -3.42774742074165    4.31770849699208
H         1.82402010540953   -2.73169589362581    3.98947338278529
H         0.95982990813244   -2.31497017836475    5.46403517066311
H         2.61577032749171    0.46760683347456    2.24451822746419
H         2.88771841801144   -0.80173409541164    3.44759148722491
H         2.51188726450724    0.84422509461287    3.95971114777201
H        -0.76378032876626    2.75975279988647    2.33070985533561
H         0.82281028034766    2.24087264577583    1.75381920436197
H         0.60973815398772    2.70067884490322    3.44118931073563
C         5.73921537826113   -2.81336282440777   -1.98250395039384
O         4.94054997840705   -3.25541401366615   -0.88537137864491
C         3.68221705976965   -3.60278419695093   -1.14153098776472
O         3.17797023548074   -3.58407212532797   -2.23793924942997
C         2.96675006000741   -3.99088376364307    0.13264250858343
C         2.36693834907397   -2.80005587403874    0.91335316268472
C         1.02542630653775   -3.55721264182050    0.99241847416912
N        -0.14555413590707   -2.76986093192938    0.72023289618083
C        -0.97965751914510   -3.12946733636901   -0.19562705312138
C        -2.08100209072288   -2.25448601842296   -0.47048986867891
C        -3.00530486613723   -2.45159039070586   -1.49977164681202
C        -3.98527488886079   -1.50636480988510   -1.72055662946943
C        -4.00106073771649   -0.37849629913827   -0.90122981816649
Br       -5.31322269387211    0.97990292902122   -1.13700147109147
C        -3.05869927747632   -0.24195444205321    0.10820738751946
N        -2.12864827640994   -1.16117124006213    0.32899851025447
C         1.55271546936491   -4.55844948788252   -0.05540400213039
H         6.62263386314919   -2.35549864090756   -1.54658293010042
H         5.18443562487244   -2.09367568760237   -2.58653476213690
H         6.01752126635950   -3.66277312335477   -2.60828718903807
H         3.63036695605885   -4.60110043243751    0.74270881312788
H         2.85370918065211   -2.56383103171133    1.85220459922638
H         2.28208507471626   -1.90014553530226    0.30905946153422
H         0.88618849231764   -4.02724595559517    1.96948295258493
H        -0.85984400001297   -4.04284859141536   -0.76470048806707
H        -2.93763629598800   -3.33183712426319   -2.11883626623697
H        -4.71432496219358   -1.62635960222253   -2.50592973011957
H        -3.06242206349760    0.63051988173648    0.74340322937157
H         1.41653309692717   -5.61174344010447    0.17128702888741
H         1.21601959245486   -4.34811673243242   -1.06866696208867
Cl        0.54489376218984    0.06786471241270   -0.24157631338516
