74
 energy: -113.805859758947 gnorm: 0.000608040142 xtb: 6.4.1 (afa7bdf)
Ir       -0.80506154851997   -0.39905091721275    1.50990008333678
C        -2.25954206311750    1.93779631445988    3.68594129348864
C        -1.10373005978854    1.10832178607557    3.23651601396849
C        -0.90214900096759   -0.24366897252377    3.72152451532528
C        -1.80087402871422   -0.93139758308044    4.69238438473423
C         0.43140157059342   -0.64280446104336    3.38488243670514
C         1.13987235317731   -1.83080752733812    3.93383079252435
C         0.98913937985962    0.37613128193171    2.55465870159621
C         2.40561322599799    0.44096524207587    2.09095653258227
C         0.05003365471683    1.49176069081930    2.50708978838104
C         0.46233218475651    2.85624819642254    2.02655284647864
C        -0.49468306113015    3.55207418288101    1.05388566993229
C         0.11011113163630    4.87879103742008    0.60008905278304
C         0.38362701653329    5.78369204801122    1.79896484820977
C         1.31350288480427    5.08986785730832    2.79087228320064
C         0.72013369709721    3.75972403856273    3.24576864777068
H        -3.20453949086106    1.42773461410632    3.51104750901074
H        -2.28858524285527    2.90223290845932    3.19329718819087
H        -2.16405274863922    2.10027450590501    4.76027202990916
H        -1.64742148665417   -2.00637892525907    4.67919170244316
H        -1.58102143567708   -0.57050116158145    5.69779638997932
H        -2.84470018942963   -0.71965860666199    4.47847748056100
H         0.45778266845277   -2.66000417181918    4.09726105936008
H         1.94463394958967   -2.15775904574448    3.28187661730533
H         1.57263926781923   -1.55480359860065    4.89606846299413
H         2.86989757876441   -0.54035859702184    2.11110277459304
H         2.46830851669135    0.83105392871803    1.07760466214482
H         2.97269601513644    1.10244701941819    2.74621567097525
H         1.41172668232794    2.74019608535851    1.49584593983357
H        -1.45441908008840    3.75655027045814    1.52893976630117
H        -0.65865080091455    2.90896357491600    0.18785974651398
H        -0.57247810848307    5.37526677614881   -0.09236026087033
H         1.04379473919999    4.69189487643643    0.06491247795847
H        -0.55904480304926    6.02938262609859    2.29401351960145
H         0.83379792411517    6.71937344785046    1.46186215802766
H         1.47923250658206    5.73237567211271    3.65831658688364
H         2.28222612080858    4.91592296899988    2.31631628070645
H        -0.21453573856517    3.94311660461558    3.77573315779951
H         1.40662186887174    3.26392438409056    3.93450043535548
C         0.85630431384983   -6.84417547557456    2.78989095608832
O         1.96067835649960   -6.20752518288927    2.16795907974243
C         1.79247009872554   -5.00206643053930    1.59987122480657
C         2.93058280491691   -4.44438990262275    1.00317651910705
C         2.83826818462481   -3.20481377060636    0.40860162633101
F         3.94105100488977   -2.67450023349121   -0.15772278405134
C         1.66500096151949   -2.47158816790369    0.38248340278962
C         0.53675969807095   -3.03748569688350    0.96594310382031
N        -0.66798862069843   -2.31952764616805    0.93180514897560
C        -1.76219361448657   -2.91452476097937    0.57232681644966
C        -2.94445383897621   -2.11690696040850    0.48914263975567
C        -4.18624732363753   -2.63423546850027    0.06573190664658
C        -5.25417674958173   -1.79254892031222   -0.05281199418503
C        -5.07187083748324   -0.41068957007980    0.18191125593890
C        -6.10960959736717    0.52158659634924    0.00256359889704
C        -5.87242000169182    1.86100595271415    0.18242515775359
Cl       -7.14296410100181    3.01178090956264   -0.05002663181567
C        -4.59045854778733    2.32152757329240    0.53325801397513
C        -3.57473967416308    1.43022439403187    0.73853991154284
C        -3.78266691263994    0.04528653068502    0.58886986254062
N        -2.76615572266103   -0.82313492188601    0.79950261967804
C         0.59260509004493   -4.29337927192996    1.57216908042529
H         1.24137203086489   -7.79268961004392    3.15750749833070
H         0.05348702335899   -7.03256123995353    2.07343993332471
H         0.48317294308349   -6.25435783841143    3.63023669742306
H         3.86131129171301   -4.98607375753036    1.01504590310829
H         1.61408780756888   -1.51342115955172   -0.10691444917425
H        -1.77148642023800   -3.95475046662262    0.26973377474977
H        -4.26840803289580   -3.68651040186469   -0.15121973562371
H        -6.22570081384077   -2.15724112238144   -0.34761834289242
H        -7.08481715791218    0.17134403895450   -0.29524594019951
H        -4.42110112410730    3.38159037706951    0.62809515976668
H        -2.57773608613450    1.77062156437380    0.96531918783436
H        -0.29495430060785   -4.68842183197270    2.03803734433288
Cl       -0.32255318187772    0.27759850025733   -0.72449379277955
