69
 energy: -95.316100484496 gnorm: 0.000294792658 xtb: 6.4.1 (afa7bdf)
Ir       -1.12928348267945   -0.92656912757948    0.96095650182256
C        -2.06232349285090    1.16991580307981    3.60062886490047
C        -1.13546581348397    0.19157466250377    2.96518251486823
C        -1.24884693003723   -1.24326614178508    3.15131519854953
C        -2.30133936126624   -1.90641327732963    3.97478954756159
C        -0.02589402815364   -1.84361443976803    2.71259639671333
C         0.39278905158013   -3.24886699397181    2.96840239767196
C         0.76138427763700   -0.82051372894947    2.10164163267709
C         2.16770333418631   -0.94035703602331    1.62484935974620
C         0.08477679507406    0.45074109161090    2.30254039271508
C         0.72310487155158    1.76890705641007    2.01747654543997
H        -1.94717383431957    1.09842749720521    4.68279714617911
H        -3.09874316877118    0.95009978454845    3.35972795082815
H        -1.83584338977018    2.18690590776995    3.29973942053719
H        -3.26231389245151   -1.41566690820389    3.84842726669078
H        -2.40361024966357   -2.95549368014228    3.71106826538509
H        -2.02633826814862   -1.84799516227319    5.02872079909198
H        -0.45802123688091   -3.92484369276183    2.97428950917802
H         1.10854803711489   -3.59378861699746    2.22751567350671
H         0.86841953386214   -3.29547717825262    3.94886637158488
H         2.31576583355606   -0.35272226070803    0.72153239686677
H         2.42960714680785   -1.97437554390120    1.42168277481906
H         2.84222987457747   -0.55531485824206    2.39066987805360
H         0.08525917653948    2.59516533872356    2.31400227652475
H         0.95150615850626    1.86446487814348    0.95729103740534
H         1.66102855432575    1.83972027148615    2.56771940381598
C         2.44199328544204   -6.77255140534520   -0.42701917873190
C         1.41655793208271   -5.69110903021230   -0.31549169635430
C         1.72729093984071   -4.37469101372429   -0.64705819887301
C         0.78643349398167   -3.36968582526878   -0.54558764260782
C        -0.50912096592829   -3.66781696842794   -0.12580470250516
N        -1.46844354601314   -2.65430662279541   -0.01097303122775
C        -2.66438657532208   -2.84970207183677   -0.45134914820786
C        -3.65348206349777   -1.82938862467780   -0.25037558153446
C        -4.98481851405392   -2.06534147473381   -0.55162521172869
C        -5.90937623346800   -1.07276317691142   -0.24427139524209
C        -5.45618682770156    0.11929248111965    0.25695302653284
C        -4.06903951395559    0.35797317995450    0.44493827825746
N        -3.62891850677638    1.57491315666549    0.83727325591402
C        -2.43281433206283    2.17102744093590    0.26854224428034
C        -2.81133948433039    3.04186533649033   -0.93301241570497
C        -3.78903489025077    4.13675265277746   -0.51344008884666
C        -5.00811359434401    3.50895897722778    0.15922419208673
C        -4.54119550337260    2.60723101950761    1.30394077838548
N        -3.19357151682144   -0.66181989336559    0.27323591681772
C        -0.83435421414734   -4.98661272370024    0.19983924460155
C         0.12210106407050   -5.97720732314469    0.11108686076073
H         2.39551991761500   -7.22221122531141   -1.41929297107554
H         2.26243007169666   -7.55723021437170    0.30363256520679
H         3.44462245114033   -6.37597642142101   -0.28786009874633
H         2.72330698699693   -4.13468688865470   -0.98787275884585
H         1.03072325236796   -2.35522791267848   -0.81562415068493
H        -2.93287906199464   -3.76028043478999   -0.97639131872219
H        -5.28432864766052   -3.00253034129058   -0.98795443020969
H        -6.96199161019532   -1.22792222426475   -0.42042280446699
H        -6.16297326679662    0.90433697321946    0.45781559453387
H        -1.73857273250077    1.39656401452630   -0.04585567301513
H        -1.95883865100527    2.79241652869540    1.02896213240412
H        -1.90518106085012    3.48009521693186   -1.35157857327262
H        -3.26454686344904    2.41357641213559   -1.70289099325785
H        -4.09719102479626    4.71924825573793   -1.38293279723352
H        -3.29630242750858    4.81736328452097    0.18461897858862
H        -5.66899120812682    4.28339075409277    0.54992529944451
H        -5.56465489553852    2.92518863616418   -0.57636139212425
H        -5.37986846569727    2.16307981557197    1.83828241084246
H        -3.97992869624737    3.21603502490362    2.01868456385729
H        -1.82694574854028   -5.22137704872741    0.55381446958870
H        -0.13740129482970   -6.99004072142678    0.38026453656305
Cl       -0.28082595423331   -0.14219921869140   -1.16068061860288
