66
 energy: -99.155752117448 gnorm: 0.000840126812 xtb: 6.4.1 (afa7bdf)
Ir       -0.32789499061101   -0.86946497489556    1.60348724428272
C        -1.89312279990080    1.03710185943735    3.99299051099094
C        -0.66454404694257    0.37934356971128    3.46410439503741
C        -0.28908932351937   -0.96243065365543    3.82802580142181
C        -1.04129909369314   -1.83206440067527    4.77574795856225
C         1.05930442115558   -1.18933402726118    3.37375615494942
C         1.90796555183795   -2.34680880793360    3.77055723637989
C         1.46779905307890   -0.04687118992561    2.63783278927843
C         2.83076965306635    0.20542735264001    2.08949914189476
C         0.39053517521621    0.93711137488427    2.68089947570805
C         0.57543435107846    2.35968127011996    2.22647932977057
C        -0.52775692534604    2.89199608967252    1.30494567083383
C        -0.17693148200283    4.30305383760492    0.84060561294694
C        -0.00414858516009    5.23257832686868    2.03961300006593
C         1.07529422429998    4.69950969496970    2.97821496773193
C         0.73663135149026    3.28584958043093    3.44350892664752
H        -2.75707379184400    0.38089502093052    3.91301811050454
H        -2.10788770315454    1.97330421207120    3.49124816705149
H        -1.73759110535703    1.24608441333869    5.05236051844847
H        -0.76400823843044   -2.87539583829725    4.65761935393531
H        -0.80403590775788   -1.53365550002797    5.79766698321570
H        -2.11421536223772   -1.73243277801650    4.63745664373572
H         1.32206713072167   -3.25652035822293    3.87204513950908
H         2.70700115955723   -2.52283963874849    3.05638654294077
H         2.36024385320602   -2.12675380734226    4.73838886094536
H         3.42389044941776   -0.70400614023597    2.08255419633276
H         2.77582804827330    0.59325644720410    1.07423029511026
H         3.34031233504465    0.94391642818936    2.70826897019051
H         1.50697676279073    2.39996420086901    1.65418525649438
H        -1.48314673545059    2.93284258816314    1.82771454061130
H        -0.62677245348548    2.23030056951189    0.44286995067263
H        -0.96581817783295    4.68190001855224    0.18779615067956
H         0.74883648220028    4.28027719535394    0.26156170669479
H        -0.95036293361675    5.31139982072473    2.58034382453701
H         0.26452420368945    6.23366868662028    1.69682536219420
H         1.17272700296252    5.35608352756263    3.84532659345330
H         2.03541893121898    4.69424470143713    2.45708022786275
H        -0.18803783691494    3.30828193212955    4.02024414470413
H         1.52959001611693    2.90931583067157    4.09229835289278
O         3.57088356126035   -7.50853126400212    1.60271897045184
N         3.81451186424971   -6.38787582180747    1.19343871931152
O         4.92270095217396   -6.01141961440236    0.85775586211486
C         2.72886308522776   -5.45387119506487    1.10135583723581
C         1.45369553519936   -5.84558567297897    1.50033669261245
C         0.40890601257624   -4.95044792051339    1.40196480839640
C         0.64011011584714   -3.66066966480451    0.91482225995865
N        -0.41391399043373   -2.74599977017433    0.81891489832017
C        -1.48236227984720   -3.05433128508341    0.15273942152375
C        -2.51286043048092   -2.06242977080278    0.09858737331048
C        -3.70369365405899   -2.19950253872579   -0.61734817491445
C        -4.60822917643027   -1.15478490728558   -0.62064430778225
C        -4.29447544314592    0.00105069168465    0.08724642239860
C        -3.09421405207720    0.07113404429729    0.77294369787116
N        -2.22063345152737   -0.93242309808462    0.79265551272336
C         1.92491410111628   -3.27219567347660    0.52755441866908
C         2.96717087367326   -4.17110947000370    0.61203357325773
H         1.30072680035172   -6.84546527852846    1.87573557721175
H        -0.58324799855547   -5.23534688954517    1.71492607714507
H        -1.57465849483070   -3.99489628957924   -0.37783044237753
H        -3.89379099157495   -3.11041363704752   -1.16137099906851
H        -5.53607643296775   -1.23137113453980   -1.16522732623696
H        -4.97089040131355    0.83979450466669    0.10832408416017
H        -2.82264889758284    0.95997595565025    1.32097895115716
H         2.07791398862945   -2.27807001230971    0.13637150425936
H         3.96579320548961   -3.90244096595266    0.30336126990756
Cl        0.36596393587464   -0.18687375600340   -0.57739679085033
