73
 energy: -111.063948621915 gnorm: 0.000880773855 xtb: 6.4.1 (afa7bdf)
Ir       -0.63608162052396   -0.53573465933199    1.57270348534641
C        -2.17409151746188    2.10436349703319    3.26728643689589
C        -1.10913535820578    1.07551125366814    3.12302569863453
C        -1.23904764440821   -0.24728505732130    3.70709835001508
C        -2.43808565560983   -0.74639689653847    4.43835633205252
C         0.05197561623652   -0.84822951828151    3.75094158389101
C         0.38214295078884   -2.05654249751688    4.55674160894322
C         0.94860404062096    0.00611146761577    3.02194143255422
C         2.43015080661210   -0.14208199226280    2.92782709146575
C         0.23218424694059    1.23292769172105    2.68465218453810
C         0.93199274964378    2.48119774826678    2.22348297313972
C         0.34190165700671    3.12351831197273    0.96401137044867
C         1.17563573091037    4.33568554724369    0.55919343983506
C         1.23459148238175    5.35473752197305    1.69414888190208
C         1.81002979253613    4.71449079724790    2.95420909576322
C         0.97638885351380    3.50604729304783    3.37012596737976
H        -3.15898786728204    1.69648813726712    3.05337137809890
H        -2.01051855847403    2.96184917068326    2.62667770078752
H        -2.17600781154303    2.43796135690557    4.30631340240760
H        -2.41804952406258   -0.36473050036983    5.45995399914167
H        -3.35760284160965   -0.40207531881986    3.97309418693527
H        -2.44536680722683   -1.83196338418507    4.48287430308223
H        -0.20730564559785   -2.92088250299556    4.25733846371034
H         1.43691807671055   -2.30682324030105    4.49981208627869
H         0.14044484257093   -1.84221012384661    5.59848701638646
H         2.75850962557333   -1.13753813877202    3.21147578198202
H         2.77347854591314    0.05458062063523    1.91405677920226
H         2.90462782170675    0.57920530620843    3.59402793584516
H         1.96349048952905    2.20908734762152    1.98113724672412
H        -0.68588324630577    3.44189250332173    1.13508393247595
H         0.34554986079756    2.38728268244373    0.16037331351902
H         0.74344939455331    4.79774715633713   -0.33062702441854
H         2.18891751373351    4.01561245123081    0.30580391059595
H         0.22903283205022    5.72863803259064    1.90092258185687
H         1.84976605749223    6.20637923891058    1.39693579729686
H         1.82745940329299    5.44292285234112    3.76729909514456
H         2.83998659391671    4.40479157770634    2.76326500443670
H        -0.03320365322495    3.83578400751281    3.61275848796846
H         1.40709673343903    3.04626415800129    4.26162575235940
C         4.81778453817936   -4.74951839684443    1.63699383920052
O         3.63669286162177   -4.01751434022497    1.92004544980188
C         2.61690673486429   -4.05613962088642    1.04235639203125
C         2.61189153974824   -4.76541260426583   -0.16032366381994
C         1.49516001432237   -4.72743804262032   -0.97765390134399
C         0.37949512010828   -4.01181869096971   -0.59965609063050
F        -0.68921661215446   -3.97712139245686   -1.42857771356437
C         0.35484883811695   -3.28490817399155    0.60078478357961
N        -0.74470019785407   -2.49290194696875    0.94103617890294
C        -1.94305767928462   -2.93190159192490    0.72081562774784
C        -3.01996328224544   -1.98674072300289    0.72890996117486
C        -4.36729486853362   -2.34483547417872    0.70045350129275
C        -5.32317749836588   -1.34970038965457    0.64666339722644
C        -4.89458009110755   -0.02565932155052    0.51396446754731
C        -5.84099543964401    1.01449405497790    0.34960133403596
N        -6.63838481217313    1.82641082833334    0.21793019249613
C        -3.51924379364195    0.26037465703131    0.49365046059947
S        -2.99826624752804    1.91370179306849    0.14870601307603
C        -2.08289017179561    1.62758525674913   -1.39517582678391
N        -2.60939741511171   -0.69175702584536    0.69739652856349
C         1.48950855971120   -3.31546380546889    1.39755353711394
H         5.48005645322331   -4.56821695427630    2.48083736037315
H         4.60972365914833   -5.81955894584234    1.55952804041525
H         5.29252482632391   -4.39510284896336    0.71895860402547
H         3.46693792117643   -5.33956287216656   -0.47516345198654
H         1.48098778712674   -5.25634758981409   -1.91735295468651
H        -2.14387173822464   -3.96581067172354    0.46368047652426
H        -4.64571659877532   -3.38517907528043    0.73589491065815
H        -6.37762492237992   -1.57786213005908    0.66181340002704
H        -1.28143942545252    0.91447487667702   -1.23291335171355
H        -1.67586755638639    2.59480914206446   -1.67060041297292
H        -2.77910403517219    1.28649038024601   -2.15539623120418
H         1.50497378024811   -2.76768354522675    2.32060989831458
Cl        0.61639977995045   -0.27999771133767   -0.44152882302418
