70
 energy: -103.607350039652 gnorm: 0.000456635228 xtb: 6.4.1 (afa7bdf)
Ir       -1.14403200202376   -0.61663404731620    1.43938605012992
C        -2.26157579582892    1.48852286844537    3.97980639395801
C        -1.26030107687484    0.55023125137623    3.40033245634666
C        -1.28823281417032   -0.88070265360515    3.63188277570126
C        -2.31339369592310   -1.58410817157540    4.45533767286988
C        -0.02064164374837   -1.41711620964231    3.23433039144652
C         0.47421428899232   -2.78450140170567    3.54724731922914
C         0.71764402051386   -0.36689794514147    2.61103687166279
C         2.13494742245260   -0.41551582358582    2.15651914621132
C        -0.04054205480482    0.86486289155620    2.75303749808641
C         0.52825195303517    2.21194171058860    2.45638467851651
H        -2.16491113287544    1.46450548028425    5.06582782790433
H        -3.27587822625620    1.19154381773014    3.72803534028858
H        -2.09508851752354    2.50579254717577    3.64421738251228
H        -3.30199149836974   -1.16656942044286    4.28724226735141
H        -2.33516533468499   -2.64689228643767    4.23146337692951
H        -2.06989122619140   -1.46562807763724    5.51176134047197
H        -0.32639556025141   -3.51844472256145    3.51280902567689
H         1.26065504351610   -3.09029622392239    2.86342734513401
H         0.88462684446878   -2.77928802050625    4.55772792673959
H         2.26818315575202    0.18294275653636    1.25810166679245
H         2.45417856758497   -1.43310580195728    1.95074399965926
H         2.77839654088711   -0.00340780911703    2.93482808117422
H        -0.16579973717188    3.00475474187944    2.71517066158558
H         0.78595580519846    2.29894984533463    1.40240711236067
H         1.44204590554546    2.34819626081744    3.03439418715060
C         0.87525498778151   -7.95064374030344    1.23400653664659
O        -0.06450452952728   -6.89048178314677    1.24848454130147
C         0.31741558552588   -5.67078460162351    0.82680275537256
C         1.59499424183237   -5.34394313470620    0.37520105361968
C         1.84265560192261   -4.03824080948860   -0.01312605565752
F         3.08719673061461   -3.73031709848013   -0.44039756286241
C         0.89367585382153   -3.03882659909366    0.02972664947875
C        -0.38591851765839   -3.37935750869484    0.46677944442528
N        -1.38777807855550   -2.39894764324998    0.52497483899347
C        -2.55881960764504   -2.65662018587678    0.05285000214868
C        -3.59159574629912   -1.66984345479286    0.18818711520896
C        -4.90226961457212   -1.97334122400002   -0.14177007724595
C        -5.87767318725567   -1.01270083147028    0.10730496442779
C        -5.48961621166093    0.21301231383571    0.57965145700870
C        -4.11908066325864    0.51985450449326    0.79649926699149
N        -3.74631533889081    1.76718579863950    1.15581052427682
C        -4.71539174820885    2.76929630971802    1.57259410089704
C        -5.18808871841724    3.62191138629944    0.39336431052095
C        -3.97823262747067    4.28811112487595   -0.25841944839031
C        -2.94137376902963    3.22878647806183   -0.62406312076522
C        -2.56007467707617    2.40058671280801    0.60679934091670
N        -3.19568200071063   -0.46669540120797    0.68499651109104
C        -0.66836216796081   -4.68011386541160    0.86333864476765
H         1.22579513404175   -8.15496376397195    0.21931757515116
H         1.72694156510000   -7.73432091975938    1.88383084429596
H         0.33856707087326   -8.81718107305295    1.61417085979005
H         2.39311096180178   -6.06454123073753    0.31728788815912
H         1.12216469650525   -2.03825255859241   -0.29538979348963
H        -2.77482366795683   -3.59526289559277   -0.44620559883325
H        -5.14828966145831   -2.93634813189749   -0.55462214944886
H        -6.91727737799819   -1.21910959574086   -0.09158918024333
H        -6.23449670319420    0.97316662271507    0.73297349978134
H        -4.20146874610170    3.41931658559070    2.28648386361123
H        -5.54831406525724    2.30140293561869    2.09512010881361
H        -5.89370568479113    4.37467865227570    0.74606411540276
H        -5.69651031152604    2.99718149355133   -0.34329107504979
H        -3.53748817473080    5.00589332488215    0.43690735170778
H        -4.28540350762544    4.83644170287818   -1.15006381020192
H        -2.04296997533156    3.69783646570403   -1.02545006568056
H        -3.34324140922734    2.56583419267634   -1.39293902981441
H        -1.82511598410680    1.64948815361612    0.32908364057795
H        -2.13503674140676    3.05890634594186    1.36482643743920
H        -1.64528414008676   -4.94825044050437    1.23083388537118
Cl       -0.26994330607296    0.11181083063500   -0.69029995640401
