78
 energy: -133.693011829368 gnorm: 0.000711828357 xtb: 6.4.1 (afa7bdf)
Ir       -0.92906197933238   -0.47066616469959    1.31283200699931
C        -1.44288557628641    1.80599941198764    3.88585543190416
C        -0.55643278677884    0.85964782413809    3.15893351078793
C        -0.45321024396521   -0.53901832588214    3.48967494462293
C        -1.18003108892309   -1.20729200888974    4.60682496993833
C         0.67905364674051   -1.07679336336366    2.79056348051205
C         1.31836175106780   -2.39001939294834    3.07181622983191
C         1.17711756794402   -0.06830699612036    1.91609721098860
C         2.43922956370900   -0.14891430110707    1.12701464688869
C         0.41648698508279    1.15340921908270    2.16255652880848
C         0.82949201103117    2.47336868647864    1.67327449290133
C         0.91827669968059    3.55314184226873    2.55104352096649
C         1.36764714129577    4.77110786212573    2.07897220498649
F         1.43177010408960    5.80727664314549    2.94275943234342
C         1.75671540957235    4.97122413003559    0.76812906907015
C         1.66258455393871    3.88049265573378   -0.07777147913391
F         2.02463233905890    4.03126669962388   -1.36887309705717
C         1.20899891911420    2.64544778270598    0.34242203161160
H        -1.51811196335585    2.75800814527838    3.37195001638263
H        -1.02834031771669    1.97145720864857    4.88155303209320
H        -2.43842744626403    1.38867558692347    4.01487136686884
H        -1.20997951925832   -2.28372828626132    4.46484858584651
H        -0.66098640013430   -1.00357940373815    5.54393785399590
H        -2.19555368651027   -0.83225520190654    4.69543825792755
H         2.01142271102678   -2.25932586397538    3.90405783789410
H         0.58632782454070   -3.13952073194251    3.35820921216645
H         1.87338197302080   -2.75399993152411    2.21309736883796
H         2.23987002029101   -0.33330596100930    0.07287530753635
H         2.97884780532249    0.79331978086090    1.19818346745219
H         3.06815841533748   -0.95242961836406    1.49846404497476
H         0.67607394671327    3.45523519078609    3.59544080668783
H         2.09596847503185    5.93148174676620    0.41957123191345
H         1.11528492739548    1.84273821562524   -0.37052000931682
C        -1.99446192478566    8.35708057782748    2.29420181686473
O        -2.40068753879779    6.99511565625531    2.17917095590354
C        -1.79855778428125    6.23387224820557    1.26725111698178
O        -0.92526160645027    6.62513005576005    0.52410101015850
C        -2.32049172934582    4.84196747203943    1.25830782002029
C        -3.32496080506706    4.41989231695628    2.12770051061792
C        -3.78448298431992    3.11935966158451    2.06565174853902
C        -3.22826145389478    2.21036309202283    1.16138154592391
C        -3.80708184317992    0.86419758931039    1.02105752813839
C        -5.19660503171971    0.78625036419780    0.87557303695551
C        -5.81120347338436   -0.42647050237848    0.62314708723349
C        -5.01296313798186   -1.55018646859434    0.50298622501104
C        -3.63971887696765   -1.42027266783663    0.69307642308169
C        -2.74799940278672   -2.53653231321073    0.57881840403912
N        -1.49024872068802   -2.33367092358679    0.79121322432231
C        -0.59414244989926   -3.41012440151050    0.67839509140243
C        -0.89937671094826   -4.63393829133699    1.28150769413220
C        -0.00828893009584   -5.68091135284629    1.13715366646861
Cl       -0.37271470135036   -7.20838630576594    1.87741221172102
C         1.16648279883630   -5.54825524919902    0.41206249830135
C         1.46820730078852   -4.32316271034621   -0.18460001322444
O         2.57671137973453   -4.07004402838705   -0.90032676080844
C         3.51520445328601   -5.10904944569489   -1.11926844271510
C         0.58167290122096   -3.25155315591954   -0.03743620084380
N        -3.04085600224368   -0.23311386313510    0.97553747433583
C        -2.22399453553703    2.63540316821684    0.29506790098571
C        -1.78714687152148    3.94499650864971    0.33753743271842
H        -1.52453779137632    8.68902072147050    1.36732021154520
H        -1.28329902415514    8.44939192431887    3.11601531220530
H        -2.89054863344934    8.93680558380418    2.50307116221323
H        -3.74333558965304    5.11581821386413    2.83644000584775
H        -4.56457691662992    2.79985394519917    2.73929630007290
H        -5.77363318210110    1.69475949487427    0.93643976545367
H        -6.88126768928413   -0.48854797657824    0.50547728324465
H        -5.42949248547633   -2.51657201498965    0.27069628824254
H        -3.12335483848925   -3.50773909483812    0.27631161315730
H        -1.79435696603196   -4.75574437674549    1.86776776810537
H         1.82604638020918   -6.39433112852202    0.32152510081401
H         3.93828633234168   -5.46519747007516   -0.17680275569128
H         3.06410287132108   -5.94247694050384   -1.66322449843355
H         4.30149772716179   -4.66441653550861   -1.72536509108679
H         0.80530747690558   -2.31727910250736   -0.52493466401773
H        -1.82059793202690    1.95838632956974   -0.43967979390290
H        -1.03594146265826    4.29930765858288   -0.34988050698635
Cl       -0.61208537698679   -0.12808734326191   -1.02998502529912
