76
 energy: -113.971625776379 gnorm: 0.000484089077 xtb: 6.4.1 (afa7bdf)
Ir       -0.35755347928675   -1.15773320841107    1.44920805846827
C        -1.82397361041701    0.84336961877125    3.83639882284034
C        -0.61829180621023    0.16968859573682    3.27305132740884
C        -0.20556823192367   -1.14746026091670    3.69338303696788
C        -0.90792728538429   -1.96026265483393    4.72766649408340
C         1.12215941935099   -1.37820531545179    3.19385672802914
C         2.06214139168969   -2.45147442060053    3.62302256868485
C         1.46951615370470   -0.27604307593677    2.36615047747378
C         2.80836541553932   -0.05470253530900    1.74993749995725
C         0.38723014688624    0.69905646443810    2.41240808789123
C         0.54378280719630    2.09621407150531    1.87500207434112
C        -0.61749109155430    2.59952064280090    1.01158873806875
C        -0.27440755659033    3.97381366362366    0.44198956462396
C         0.00640402186485    4.96541742556941    1.56883296170221
C         1.13852557163816    4.45958890588551    2.45941485999276
C         0.80633400655590    3.08142358535839    3.02517340382447
H        -2.69743918115222    0.19646577970591    3.78419097429191
H        -2.03802708819745    1.78284117373253    3.33970487272061
H        -1.63598296679049    1.05248106657410    4.89050529309944
H        -0.62480858691984   -3.00673987130137    4.66743264649010
H        -0.63803068999382   -1.59029725885945    5.71765074678078
H        -1.98646125799047   -1.88481210012973    4.62236636974124
H         1.56966837796512   -3.17390711716994    4.26471769073460
H         2.48975958572062   -2.97371713061567    2.76981534537225
H         2.87917974944677   -1.99472019441977    4.18186141723136
H         3.38249568527642   -0.97630165968385    1.73697486276194
H         2.71367048641329    0.30668626959921    0.72799564217845
H         3.35552482299168    0.69167256734148    2.32652885468437
H         1.42942967397772    2.09449117446178    1.23271342958731
H        -1.52743363882041    2.69257016677191    1.60512764523116
H        -0.79322886894363    1.89165226470942    0.19940777056949
H        -1.09914912039302    4.33716161555668   -0.17483974929526
H         0.60554140778570    3.89318785417234   -0.19973607355317
H        -0.89563823388978    5.10099583287143    2.17022247029862
H         0.27246627211725    5.93724462255780    1.14846485522287
H         1.30882102811942    5.16091413045383    3.27870212028472
H         2.05947243620601    4.40238888351500    1.87434237016865
H        -0.07536708857711    3.15440198991142    3.66258864770338
H         1.63499830649007    2.72187530086454    3.63784416404915
C        -4.90261202681417    2.09484287437967    0.60769789070768
O        -5.10995836056352    0.95168681419521   -0.20945713280285
C        -4.23086971055357   -0.04288109134936   -0.19036966472585
C        -3.10615069619064   -0.11699528418451    0.63193748027081
N        -2.25511549007564   -1.14029546520107    0.61048481065571
C        -2.48127827026942   -2.17057448073878   -0.23918146666050
C        -1.48745601982905   -3.19418494758879   -0.19108808929647
N        -0.51183479998480   -3.03256039827061    0.64630772457203
C         0.52760350575890   -3.97230958299810    0.66924173983599
C         0.79354893155826   -4.70129947513012    1.81766445457946
C         1.79924471138005   -5.65560111070395    1.81229122071247
C         2.56975379181556   -5.87422921358936    0.67938450058485
O         3.57808261592743   -6.76610964363970    0.57997779388787
C         3.90211060446297   -7.55856530666651    1.70578840444929
C         2.30516425266824   -5.11831120818381   -0.49579894892671
O         3.10531564740796   -5.38812197164893   -1.55293560117313
C         2.88628295180396   -4.69165861550511   -2.76302642281230
C         1.27791184588758   -4.19526529023892   -0.49200363551837
C        -3.59108841751907   -2.18694981862541   -1.09165960934628
C        -4.46128115648047   -1.12505186867477   -1.07087068427275
Br       -5.98303391286577   -1.05943383341135   -2.20570855617112
H        -5.71369221136001    2.77548859078809    0.35882072906525
H        -3.94446067412860    2.56629991758615    0.37975006749647
H        -4.95834456165714    1.83161344221106    1.66594780987335
H        -2.88522134906516    0.67555812985503    1.32796112460412
H        -1.55122466615348   -4.06846117000249   -0.82785848127683
H         0.18368765555960   -4.55994337256103    2.69374666951403
H         1.97460661795248   -6.23067229768122    2.70595754838465
H         4.21702920370392   -6.93931313019235    2.55014625871790
H         3.06043758390374   -8.19098973955561    2.00150085628631
H         4.73197692629002   -8.18622035265129    1.38775853677647
H         3.01534635176725   -3.61370312744122   -2.63235513878947
H         3.63984435551502   -5.06566962182636   -3.45305982201688
H         1.89036952672415   -4.89760087312315   -3.16552235408261
H         1.06165718627548   -3.59665476830252   -1.36156824263603
H        -3.74432052455764   -3.01565277243295   -1.76341867861877
Cl        0.33250759779168   -0.56408079973184   -0.75561116255428
