68
 energy: -107.944996208917 gnorm: 0.000511114073 xtb: 6.4.1 (afa7bdf)
Ir       -0.71882001614915   -0.62329256123440    1.59189211589794
C        -2.11578456308518    1.76886812029515    3.85923361786929
C        -1.00721756979860    0.93509920901870    3.32438709893613
C        -0.76364923906574   -0.41264938558480    3.81465725915407
C        -1.61405752651030   -1.10400447180322    4.82365282580909
C         0.55641574009518   -0.79593803370173    3.43093722211309
C         1.32052571605453   -1.94478076853932    3.98689233582908
C         1.05873776188145    0.22256126174711    2.54905096022067
C         2.45904661155850    0.31880609775954    2.04994319335405
C         0.09809146836799    1.32355294589946    2.53104438819278
C         0.44448008178610    2.67943451572435    1.98445253603724
C        -0.58794882910740    3.29757290929833    1.03750250318665
C        -0.05834089908706    4.62177034571049    0.49497021360342
C         0.24320138110438    5.58747135239626    1.63796945739533
C         1.24812674236895    4.97118078739652    2.60756488912925
C         0.72681188765934    3.64373771857690    3.15037535652642
H        -3.04930932310187    1.21447596431850    3.90036713426381
H        -2.27056956368164    2.67167900983092    3.28150970626680
H        -1.85456667468088    2.04746030710780    4.88174436703114
H        -1.41979027559581   -2.17228354458637    4.83818504481637
H        -1.38702579885709   -0.70383947590585    5.81239820362953
H        -2.67011387107539   -0.93736930413759    4.63047038135065
H         0.67070953339848   -2.78697807823278    4.20609874505298
H         2.11007932777610   -2.26987324857090    3.31627721512014
H         1.78071037162974   -1.62202532273053    4.92159232095073
H         2.95832754219077   -0.64441994272731    2.08539753394304
H         2.48937752944150    0.69004807646983    1.02824473254756
H         3.01294514191036    1.01703244806211    2.67824400156544
H         1.37014279648456    2.57413302024242    1.41157789093945
H        -1.53054295461299    3.48256313312717    1.55117626738461
H        -0.77830436065785    2.60914891686841    0.21397333747984
H        -0.79685219085615    5.06178994973505   -0.17733773512815
H         0.85195060162255    4.44570099763087   -0.08267415079071
H        -0.68171764262091    5.81970800719498    2.17034672248963
H         0.63975932472112    6.52262044361126    1.23801871965553
H         1.43338415367914    5.65645219227677    3.43746534637158
H         2.19750266351391    4.81049250365620    2.09076221298555
H        -0.18939424254828    3.82045823632135    3.71246451688180
H         1.46271822482902    3.20421592809110    3.82606845997069
C         1.26256703087441   -6.96646746240553    2.92580675528543
O         2.32589584696505   -6.28956316903952    2.27503458874198
C         2.09610130416123   -5.10144285481358    1.69687312527082
C         3.19760986332578   -4.50470856064620    1.06878980154996
C         3.04120157967371   -3.28056065955549    0.45632350253311
F         4.10513952703186   -2.71473211022011   -0.14615728669564
C         1.83735402660936   -2.59682039951903    0.44650217647948
C         0.74704545370618   -3.20090862085411    1.06254379012421
N        -0.49108721617491   -2.53952808569312    1.02164658559298
C        -1.53415150114318   -3.19986230607576    0.62761450544383
C        -2.75923037392003   -2.48286497192482    0.47826818500532
N        -2.72325483196731   -1.17779342655424    0.84225969800862
C        -3.77976018679266   -0.42446058973590    0.55324506467336
Br       -3.68338578557636    1.40547736806229    0.93094709523536
C        -4.94564582738131   -0.91656417526740   -0.02224765275123
C        -5.02414035566892   -2.26226284186434   -0.34522362393260
C        -3.90739709602840   -3.03866608147513   -0.10183976344867
F        -3.89614351290761   -4.33377833880474   -0.42838604967936
C         0.86605658874144   -4.44456462656852    1.68366838390151
H         0.88107215043686   -6.38340506879659    3.76709305823539
H         1.69581802697475   -7.89308884756570    3.29532830600991
H         0.45440699283330   -7.19737069263063    2.22789188406769
H         4.15007816618791   -5.00748037670084    1.06789416069503
H         1.73458740881813   -1.65311359366207   -0.06198681803580
H        -1.47578399061529   -4.23971544338232    0.32706748925222
H        -5.77268704834160   -0.25109669210563   -0.21094651386909
H        -5.90946883871056   -2.69159214209136   -0.78679351101492
H         0.00392882876054   -4.87221194317815    2.16833347456723
Cl       -0.40562229072496    0.02300045255376   -0.67761535915187
