89
 energy: -134.966541535418 gnorm: 0.000531029668 xtb: 6.4.1 (afa7bdf)
Ir       -0.35569392835350   -0.70564702745233    1.60440036122790
C        -1.70739251154238    1.10355600221282    4.17807638738945
C        -0.50568249004152    0.48488823917357    3.54987771460180
C        -0.05114447086729   -0.85463469943210    3.79959714662089
C         1.24244372426546   -1.00450846292681    3.18380202317807
C         2.19852550732975   -2.11798592375469    3.43957296177383
C         1.52671776668088    0.18459764428249    2.46044030625362
C         0.43675221908291    1.11974847766418    2.68800164720626
C         0.47335059252968    2.55050714643659    2.34773734317951
C         0.37227989586128    3.50183294407193    3.36211784787500
C         0.43645477562884    4.84886255011883    3.06746439859078
C         0.60075121073230    5.28881249602887    1.75487313679420
C         0.67230483506262    6.72493423287360    1.44636848433802
C         1.58369645127177    7.20371622325672    0.50697871121495
C         1.65663417451596    8.55461094770923    0.22109047449257
C         0.81653495565271    9.44950296505432    0.86365843257497
C        -0.09523633747988    8.98468903513341    1.79741980969043
C        -0.16492590158847    7.63480189166279    2.08932890429467
C         0.69961729741711    4.33386677136640    0.74406629748471
C         0.64020833977470    2.98535916890563    1.03365801241809
C         2.82996535293066    0.51339890480508    1.81581238026790
C        -0.65375285053190   -1.79822242151968    4.78569153392813
H        -1.50698284079939    1.26865275325229    5.23729803473395
H        -2.57306503737099    0.44859569520893    4.10557854911494
H        -1.94591322486397    2.05628952874076    3.71441297725021
H         2.71311208570311   -1.92313669384588    4.38141250233215
H         2.94101089791916   -2.18457980020390    2.65063115191255
H         1.68999023477372   -3.07461559787978    3.52409989875531
H         0.27135214281640    3.18286636240665    4.38807086434297
H         0.38164108534189    5.57177537522429    3.86757395953128
H         2.25396092741624    6.51533410858286    0.01303776867318
H         2.37223937723185    8.91233820284725   -0.50526291139978
H         0.87273480883866   10.50417478006855    0.63738504675319
H        -0.75428610900756    9.67833431993296    2.29949859985516
H        -0.88840439498732    7.28069972093663    2.80911053945162
H         0.80550327405573    4.65141505257577   -0.28246109180928
H         0.69427487871292    2.26116963003047    0.23406562848657
H         3.13933519285235   -0.27177208738647    1.12955682402437
H         2.76384075006317    1.44863760615502    1.26768948623433
H         3.59637216894976    0.61135092788944    2.58535815683059
H        -1.73633920310685   -1.70701258993091    4.80560867794767
H        -0.38682824193320   -2.82559120097207    4.55376591134977
H        -0.27610049637907   -1.56716685101920    5.78247663707213
C        -7.62777441560601    4.95807543150445    0.37561658168064
C        -7.08773162094819    3.53673631877558    0.38021823917066
O        -5.68595613218338    3.60641019376186    0.61596669657687
C        -4.96493804055784    2.48100856985731    0.68601079904086
C        -3.57770308951240    2.66606714195446    0.92269867471511
C        -2.73424201995274    1.60517232340333    1.04446257961598
C        -3.20970447179267    0.28176921735414    0.92439213423726
N        -2.36962568340016   -0.76825345627039    1.05079234118876
C        -2.81799716484290   -2.00645340377691    0.78549663146532
C        -1.80893497193812   -3.01563802922499    0.77765916622018
N        -0.59066055167854   -2.64401828673786    1.02841537763946
C         0.46071296646194   -3.55334285639298    0.96438451755159
C         1.67324081553190   -3.14827044610100    0.41804007730143
C         2.71600590627154   -4.04864607256357    0.29437677457628
C         2.58456720459980   -5.35837368261067    0.73789634668252
O         3.53801110940352   -6.30610523040729    0.67127821254508
C         4.79974892843863   -5.97395993470872    0.12501994785418
C         1.35404094489354   -5.77153088392002    1.32241270522540
O         1.32022403079738   -7.05509415933854    1.74524148139665
C         0.12167771614312   -7.56089269529132    2.29946894822313
C         0.31050164587900   -4.87306707499597    1.41908576929228
C        -4.16986082896518   -2.26744198022765    0.47980785911905
C        -5.05610034821490   -1.23154435399823    0.43340755187052
C        -4.59397353461035    0.08950990975541    0.63340550299261
C        -5.45065214972801    1.19689163522742    0.53704103065804
H        -8.69825885549802    4.94160727330932    0.19436094342382
H        -7.14358729651997    5.53922637542691   -0.40436101480478
H        -7.43588370157263    5.43408740815465    1.33316011175791
H        -7.56580164198907    2.94891182733351    1.17368968397595
H        -7.27618086737267    3.05416715471595   -0.58688035565210
H        -3.21162061531452    3.67722637424602    0.99733712177260
H        -1.67863600335758    1.76701931571255    1.18553951152711
H        -2.04777214190148   -4.03076824794605    0.48500286502643
H         1.76960210143187   -2.14304756115972    0.03938551769407
H         3.63548797578145   -3.72025303230060   -0.16065315434688
H         5.38851858581006   -6.88730681839697    0.17896689294138
H         5.28948073013090   -5.18974853418159    0.70798140159413
H         4.71100372845693   -5.65973080758448   -0.91822678496035
H        -0.14953502681784   -7.02902718922050    3.21554890364024
H        -0.70071516374772   -7.51041515664877    1.58036690321432
H         0.33059453723426   -8.60204236570218    2.53607586690816
H        -0.61970608734075   -5.16534581493301    1.87804105225586
H        -4.47604802624668   -3.28312433394467    0.29151492653227
H        -6.10070569097857   -1.40045967738734    0.22253916777539
H        -6.49110540145704    1.01108686354221    0.32517561900478
Cl        0.05460373210028   -0.15095359648203   -0.68224065300241
