72
 energy: -119.736602747781 gnorm: 0.000412910612 xtb: 6.4.1 (afa7bdf)
Ir        0.11661137827107   -0.14037814278590    1.66462557846370
C        -1.04311135157490    1.38562265257622    4.56294452104723
C         0.08050507676682    0.93994182400352    3.69939665985097
C         0.72915978430623   -0.32533752918053    3.85153329555392
C         1.88120446482958   -0.33947457573683    2.98466814095003
C         2.99247504275844   -1.33005015867936    2.98841406643444
C         1.96451802427471    0.94355370033388    2.33630452530188
C         0.82563217532465    1.72112937971269    2.73860709107236
C         0.67527329241898    3.14994045302761    2.44082051940930
C         0.51440699926616    4.07617567082920    3.47011946448836
C         0.42315010374305    5.42406344089192    3.18614925853027
C         0.49154174915739    5.88732720170283    1.87364342885248
C         0.38931325799335    7.32296352080440    1.57414831913947
C         1.23217507304417    7.91381627897466    0.63492794465352
C         1.13578384605250    9.26453561081758    0.35470366917958
C         0.19043360740441   10.04411231483381    1.00139639608013
C        -0.65590329283981    9.46526711365528    1.93335394045799
C        -0.55573850949641    8.11643166268777    2.22134692465128
C         0.66014860859989    4.95756989506821    0.84843260157200
C         0.75273751470742    3.60998283054996    1.12583264533522
C         3.13506443033635    1.42472917989799    1.56091634410955
C         0.40278381141824   -1.29482926890960    4.93474623969083
H        -0.67861297866331    1.45923852637130    5.58889065871116
H        -1.85261782493050    0.65894602060996    4.56101164438589
H        -1.42993028547414    2.35071993441525    4.25552229313464
H         3.79663065736852   -0.94713530086862    3.61806815693407
H         3.38807310990166   -1.46969049062331    1.98546976630453
H         2.67449579712556   -2.29033481589742    3.38042354095764
H         0.49550501771816    3.74576033572231    4.49620158788985
H         0.31851611966647    6.13234870954171    3.99392157648489
H         1.98221938510690    7.31555266423975    0.13803351802018
H         1.80084029079990    9.71207286063435   -0.36992436359860
H         0.11440278277456   11.09875012720957    0.78024683568844
H        -1.39758658276277   10.06902536544007    2.43590466648689
H        -1.22888092375885    7.66806391819504    2.93708880242906
H         0.69799775037547    5.29579539763294   -0.17625388505640
H         0.85166514813638    2.89809999543158    0.32012122705283
H         3.16985951189390    0.96346331327893    0.57477133203503
H         3.08586405731403    2.50251693673500    1.42897755064855
H         4.05152575232874    1.15950503048902    2.08546173136976
H        -0.64535062131005   -1.58367838501070    4.91076121676666
H         1.02558223736701   -2.18112153871746    4.87914160190160
H         0.58466971441421   -0.81076688206133    5.89522627995474
C         2.79549569212653   -6.40910295862328    3.89622355214578
O         1.90143798688520   -5.32901553622957    3.68617376083143
C         1.78918853561838   -4.79928015858699    2.45271813822084
C         2.51095539656883   -5.20815405602174    1.33071192776197
C         2.30452407339477   -4.58713594686250    0.11064880928926
C         1.38538704151389   -3.56457792402163    0.00097726362755
F         1.17982777977867   -2.97974293773792   -1.19976472191997
C         0.67214047677744   -3.11282128796988    1.11648432930380
N        -0.24827019069123   -2.05472317278610    1.00365362909014
C        -1.23397159776001   -2.20591933648800    0.18099603653195
C        -2.13065060613922   -1.11142361475358   -0.01382551698662
N        -1.90254691391394   -0.00563629422971    0.73894538781178
C        -2.70642689800891    1.03757916649116    0.54719136973564
Br       -2.46596749303917    2.56201337001846    1.60799787986325
C        -3.74737506365184    1.06078982295974   -0.37349240461754
C        -3.98902116913221   -0.05918248100948   -1.15299224979992
C        -3.16892775700330   -1.15229490569550   -0.95362250812406
F        -3.34810424123645   -2.26992969421559   -1.66370017307587
C         0.87594964051343   -3.74775088870304    2.33126131865104
H         2.70002653574724   -6.65982843901870    4.95034964695577
H         2.52100019154300   -7.27491112443122    3.28913532153709
H         3.82626410498290   -6.11645458921892    3.68198458960666
H         3.22550530847850   -6.01146378760613    1.38997541197265
H         2.84681762046666   -4.89932411940206   -0.76738338837787
H        -1.39145258416323   -3.12767345467762   -0.36951095848762
H        -4.35984513131489    1.94358310343330   -0.46585738045002
H        -4.78078006445258   -0.08791800853181   -1.88440248816299
H         0.29673181057314   -3.45782427427010    3.19094250321963
Cl        0.71930031359258    0.29393675034495   -0.59237839958779
