76
 energy: -108.480732817672 gnorm: 0.000488151530 xtb: 6.4.1 (afa7bdf)
Ir       -0.43913939778849   -0.65514934608512    1.80947493203077
C        -2.56914445863014    1.45605577636580    3.64715130444194
C        -1.31808850016140    0.65740547408899    3.49458682208576
C        -1.25389019187479   -0.74056424799652    3.87184156075396
C        -2.40386449312673   -1.51987094796354    4.41526393902124
C         0.12519006750435   -1.11740758411036    3.95261869237284
C         0.63408641724548   -2.36072812361501    4.59680258555835
C         0.90167403821123   -0.01787370729264    3.47351775542931
C         2.38750625278984    0.11089413214074    3.56007629261294
C         0.00214265481893    1.10223384451551    3.22939494154321
C         0.51849775399987    2.50233921509751    3.03753953579172
C        -0.09385128859535    3.30001990156845    1.88242649856477
C         0.60411902755109    4.65299460512950    1.76772756209196
C         0.46893592717376    5.43982367724606    3.06900914175761
C         1.04453745904942    4.64343374343891    4.23692706668302
C         0.35956979858878    3.28464065566305    4.35338515901216
H        -3.41326277667418    0.96864831582357    3.16425254552745
H        -2.46919326438874    2.45718468582014    3.24535851450759
H        -2.79445443446687    1.53128395319570    4.71197734365052
H        -2.23659111237573   -2.58907380852619    4.32181132999841
H        -2.52584754678733   -1.28662891167400    5.47361462397356
H        -3.32807759058186   -1.26187797472091    3.90565244163630
H         0.67018026152798   -2.19418928722958    5.67444760119182
H        -0.02706417299609   -3.20388773398054    4.41563747588382
H         1.63742092847742   -2.60785812898709    4.26422770326095
H         2.84763931046188   -0.83472838027596    3.82685093638275
H         2.80751373131838    0.45390130943355    2.61704878616321
H         2.64114072782817    0.83964426111851    4.33006379127014
H         1.58852477591788    2.42544045399530    2.82344732649212
H        -1.15739232667594    3.47402744420672    2.04784238331453
H         0.03274695656204    2.74285811807098    0.95317762429754
H         0.16989598478449    5.22145974076892    0.94289141486277
H         1.66209110879417    4.50136451398510    1.54201394066227
H        -0.58594021096151    5.65294118946302    3.25808623363772
H         0.98888856412868    6.39579990462576    2.98018594749068
H         0.91330142110946    5.19988117644868    5.16722296149211
H         2.11677192276060    4.50188876055569    4.08279472019504
H        -0.69871517907507    3.43073662076667    4.57102961687053
H         0.79717894176136    2.71823867334651    5.17771910442159
C         5.48682676895811   -2.22064220231641   -2.19128258006808
O         4.83915882212405   -2.69532220750179   -1.01168188553155
C         3.59902428808371   -3.16160162826428   -1.14098665982078
O         2.99912656795109   -3.22182887532446   -2.18633782798220
C         3.04532335423931   -3.58268513430137    0.20169122758154
C         2.48541067471426   -2.42494288593395    1.05842265326339
C         1.18332353451813   -3.22302682164305    1.25352570388210
N        -0.04488715720034   -2.50048425212804    1.05251801095782
C        -0.99259666881969   -3.04720620679336    0.37171623664708
C        -2.15435117718573   -2.25862526387805    0.08259063747651
C        -3.23759021980778   -2.74903045646233   -0.67254139423902
C        -4.27452323113789   -1.91020234072741   -0.96926761106619
C        -4.19720446703862   -0.55555501088017   -0.58267653509331
C        -5.18744769092391    0.38624379469875   -0.92538788809795
C        -5.04259914321914    1.70549917179858   -0.59036590176224
C        -3.89129441267302    2.13791793761288    0.08747957520305
C        -2.92447397029213    1.24434728147342    0.46126112772195
C        -3.05701930989565   -0.12303753961539    0.15827121171549
N        -2.09800604156297   -1.00145730674289    0.53827564910076
C         1.64710952316457   -4.21404738464739    0.16533355880050
H         4.86422605015612   -1.47588824691221   -2.68965620388144
H         5.66728465855528   -3.04851277133919   -2.87916539692023
H         6.42547902851995   -1.78333423287108   -1.86272750645509
H         3.79910683087242   -4.16719581579562    0.72681283529096
H         2.31945410072818   -1.51698016559526    0.48420942674777
H         3.05305979153810   -2.19399739026290    1.95239861067303
H         1.13736397491170   -3.69444135891776    2.23820035410510
H        -0.91045215374729   -4.05298649997727   -0.02299027050439
H        -3.22992041661947   -3.77724408039030   -0.99444255668947
H        -5.13730437357356   -2.25711166157751   -1.51702347770144
H        -6.05247178210038    0.04685069728615   -1.47405784335012
H        -5.80112859964530    2.42291312675145   -0.86187823998468
H        -3.77115705679444    3.18713246743824    0.30769805771586
H        -2.01838986231847    1.56713257573971    0.94671486836967
H         1.18743115032781   -4.03111166342109   -0.80468345281957
H         1.58798634330105   -5.26975795420238    0.41431534512105
Cl        0.61856618468994    0.29751534117216   -0.10909401530856
