68
 energy: -107.952882780488 gnorm: 0.000300122030 xtb: 6.4.1 (afa7bdf)
Ir       -0.26176870219146   -0.87881692670542    1.84091969559959
C        -2.18224576373614    1.24067106817380    3.70256301023860
C        -0.89698846714298    0.51218795298156    3.51526494227889
C        -0.60467202075215   -0.79018847953889    4.05463873398890
C        -1.52047580341202   -1.59301115816662    4.91439550662890
C         0.80507457796741   -1.01913715285090    3.91856948136722
C         1.54645287605545   -2.05494828296219    4.68976103826917
C         1.34949013347751    0.03342526317374    3.12701584056523
C         2.79665320619231    0.30140053797969    2.88466740707811
C         0.28730753514453    1.01352486740972    2.91034220986435
C         0.50724736014531    2.40108289503531    2.46845768161418
C         0.17825836366424    3.43587421926590    3.34415372593218
C         0.42293501393833    4.74193650509025    2.96573588465950
F         0.10286890862753    5.73346421646146    3.82369829358895
C         0.98020560272416    5.07275540214413    1.74361426061915
C         1.29349857843553    4.02357930351479    0.89695480213018
F         1.83487832222467    4.30694056673034   -0.30531780548634
C         1.07359942096599    2.70130036397664    1.23267795350575
H        -2.24065942983409    2.10802760767276    3.05027023219674
H        -2.23950552055285    1.58650377027943    4.73557456736552
H        -3.03698246796522    0.58946729198010    3.53353419571876
H        -1.27557026542617   -2.65011250870871    4.86414047352837
H        -1.41316078229282   -1.27154440034013    5.95109184910320
H        -2.55793324541286   -1.45520106430613    4.62385607328129
H         1.47512230398443   -1.79402416785814    5.74704641495370
H         1.10963528037903   -3.04354061963479    4.57010490850767
H         2.59785585679693   -2.08316902954881    4.42287397766992
H         3.37767592228243   -0.61522723555775    2.91129776605099
H         2.94846699117082    0.78404500424027    1.92371902398382
H         3.16855704151889    0.97223544262013    3.65982318595913
H        -0.23715155948741    3.23759834323680    4.31841484624966
H         1.16306406306219    6.09712427520522    1.46527189131679
H         1.30516955139431    1.92308269943885    0.52284627106537
C        -4.90554585337888    1.92842234486296    0.20529269047204
O        -5.20901905699611    0.55345247408632    0.01352697515898
C        -4.29984703755269   -0.37235278362949    0.28091749563717
C        -3.02307010168180   -0.13532071750904    0.79967353052523
N        -2.15009915622432   -1.10840408994565    1.02948394872536
C        -2.46654082311610   -2.38286606739146    0.71906637067358
C        -1.35591902031654   -3.28509063423706    0.78175835081017
N        -0.20259259518074   -2.81334079262231    1.11673396493522
C         0.95960452179304   -3.64277909519840    0.82684462454840
C         2.24958801070095   -3.04209708111686    1.37201006333878
C         3.44583072330481   -3.92866137179459    1.02546367400343
C         3.57110294769538   -4.10231657531314   -0.48374054176893
C         2.28055988268619   -4.68722737613066   -1.04591209851288
C         1.09197239876335   -3.79600891783678   -0.70122381423638
C        -3.73339236856897   -2.72017582044866    0.23488938581262
C        -4.65341015647850   -1.71797229902290    0.02888490110229
Br       -6.39749455701436   -2.08652096237128   -0.62981910906394
H        -5.78867561445053    2.46573577370518   -0.13317183614150
H        -4.04316532120081    2.22614804679613   -0.39414309597627
H        -4.72868336568630    2.14474548524221    1.26051962791767
H        -2.69093892807830    0.86831327725976    1.01366650893878
H        -1.47867723034876   -4.30838672336350    0.44382519730738
H         0.79861648210404   -4.63385978898894    1.26989317104484
H         2.38762797371930   -2.05362516659125    0.93076464327190
H         2.17911730467840   -2.94772122432389    2.45091253503002
H         3.32430766073225   -4.90764185127240    1.49433196006194
H         4.35735004046308   -3.48029501325489    1.42240362858376
H         4.41104385265061   -4.75864942172524   -0.71656965079201
H         3.76379535691850   -3.13371727398407   -0.94884751460212
H         2.35302025875552   -4.77929276121114   -2.13072308125868
H         2.12386573387266   -5.68736797593082   -0.63520620746532
H         0.17852628808837   -4.21974006399642   -1.12043022488907
H         1.23496295727789   -2.80546434877655   -1.13482163398358
H        -3.97638645326293   -3.74664858833087    0.01422957995406
Cl        0.43965136339470   -0.25827818610323   -0.34621235856136
