54
 energy: -93.292799405423 gnorm: 0.000536569171 xtb: 6.4.1 (afa7bdf)
Ir       -0.69598087039093   -1.15985344540070    0.93887085854993
C        -1.93516984252782    1.37159515349865    2.90845562257774
C        -0.82047400759362    0.46095473967794    2.52365827963533
C        -0.55908713342658   -0.82660206170081    3.13698979865485
C        -1.34325752046680   -1.41266667705052    4.25901112184752
C         0.72874879275154   -1.27664034415375    2.68964440407487
C         1.48080864601735   -2.43506085209333    3.24345085420406
C         1.20417811167870   -0.34124209040694    1.71656918613651
C         2.56556043136511   -0.29743190469670    1.11337760212709
C         0.25489544666253    0.76065334120433    1.65323644923130
C         0.50391170700756    2.03290019307058    0.92342371361843
H        -1.62317208719246    1.95738253214976    3.77411644072820
H        -2.82677706004707    0.81668708891356    3.18858770086348
H        -2.17968274447697    2.06730425264844    2.10978635196561
H        -2.40830422838337   -1.23717557261436    4.13398192386678
H        -1.16777032861833   -2.48058917679977    4.34775922355186
H        -1.03292244393631   -0.93931229353946    5.19148381960569
H         0.81439613575790   -3.24516321318628    3.52615063059708
H         2.21203680462051   -2.81057436979900    2.53368197824885
H         2.01198180795641   -2.10696956754355    4.13762719607873
H         2.51949577606241    0.05748976286055    0.08681478323496
H         3.04082941291292   -1.27306116180085    1.13478061488344
H         3.18196158979386    0.39978381899249    1.68152904647156
H        -0.36689380373744    2.68090013452687    0.94050316782775
H         0.77205651588039    1.83499393566873   -0.11254900188785
H         1.33857317612783    2.55508583089909    1.39142893861812
F        -5.61563531255535    1.37228629593453    0.61281707909407
C        -5.92386552141241    0.34853119949232   -0.19465828500093
F        -7.13497287969563   -0.08958517166989    0.18026110900076
F        -6.07125949024008    0.86338635373565   -1.42803338829813
C        -4.89038401620911   -0.74630524431983   -0.16357554451613
C        -5.19561006653177   -2.00597474460792   -0.69028475893532
C        -4.21430952079816   -2.97391533259382   -0.67045372089177
C        -2.96527540205562   -2.66856375243629   -0.11857236689358
C        -1.85130016556406   -3.56302799374565   -0.08880644073642
N        -0.72601159814501   -3.08323735153670    0.35116974880759
C         0.41105783176209   -3.90095720866585    0.39357885516335
C         0.36825650735398   -5.15360538982716    1.00803932494142
C         1.50389240002893   -5.93876483692633    1.05667349771895
C         2.67644186164883   -5.48269800916206    0.46988535523818
Br        4.25165780920602   -6.57825825262723    0.53246594256017
C         2.72729566973396   -4.24413810238608   -0.15718441314272
C         1.59833781775812   -3.44938125119965   -0.18474130150288
N        -2.69501083768675   -1.44473919337287    0.40596026855454
C        -3.63260847123104   -0.50647193896739    0.36582063254073
H        -6.17397263800835   -2.20391494758021   -1.10031628113352
H        -4.39324242846079   -3.95452144620646   -1.08098721799655
H        -1.93052448178080   -4.57582981288863   -0.46485906643843
H        -0.54340996126996   -5.49606031851793    1.47213529640740
H         1.48063012684325   -6.89950580848814    1.54517608807282
H         3.64159703887244   -3.90792349247090   -0.61946462156505
H         1.60843085804679   -2.49364025612086   -0.68558064923031
H        -3.38027321174358    0.46250891553618    0.77122425013313
Cl       -0.42050120166905   -0.54434196170288   -1.34399509726566
