60
 energy: -97.826758652076 gnorm: 0.000955356460 xtb: 6.4.1 (afa7bdf)
Ir       -0.67434622513817   -1.25783155770570    0.99523645519213
C        -1.85909464800104    0.98315172474748    3.37072161993665
C        -0.75659136159646    0.15348817207958    2.80880168024742
C        -0.49084997934012   -1.20726717266315    3.21445237825515
C        -1.24596432565680   -1.94329339676830    4.26842878465411
C         0.79354845702589   -1.58523803135162    2.68593146231755
C         1.57407111394182   -2.78453091809085    3.09602647453307
C         1.24569546207730   -0.52806064846405    1.84700320975668
C         2.57525621468116   -0.41557916015924    1.18689070660614
C         0.28490422763235    0.56093358001966    1.93599989735817
C         0.53584655817711    1.92433151976153    1.38353448088317
H        -1.64201266525962    1.17903734958370    4.42116198197445
H        -2.81275780163838    0.46367396103950    3.32031952981294
H        -1.95261858418544    1.93354776219425    2.85653432945758
H        -2.30548946789539   -1.70630760967941    4.22999528450397
H        -1.11714468683051   -3.01737608826773    4.16788745010580
H        -0.86906595429452   -1.64915498430302    5.24894460427944
H         0.92874773154528   -3.63435736394107    3.30062644224802
H         2.29860496315441   -3.06684922734062    2.33768168338736
H         2.11740940628004   -2.54507052334318    4.01096639204493
H         2.48739813691355    0.12315748991405    0.24690722291517
H         3.00393259437710   -1.39388265625500    0.99020236654357
H         3.25483184799585    0.13727608313300    1.83616313868495
H        -0.28828083069991    2.59999032480213    1.59318666945338
H         0.69334077832567    1.88082293287941    0.30684843364174
H         1.44035598274857    2.33188229102830    1.83479110387771
O         4.59124931169441   -5.21878237196451   -0.90335140664210
C         3.71749474182057   -4.39628079887406   -0.74610593418937
O         3.84313536313072   -3.12871438795621   -1.12306903377738
C         2.40826789281444   -4.69837210888825   -0.10636490958236
C         2.23384913691416   -5.94504273432833    0.49307044655101
C         1.02359089618923   -6.26524200350865    1.08312877856945
C        -0.02131208704745   -5.35865380772649    1.06392935386902
C         0.14893832596489   -4.10989192945140    0.46152826901455
N        -0.90035765632824   -3.17998525119521    0.43499971574889
C        -2.09225511240105   -3.56001685423716    0.09004206284686
C        -3.10322781803022   -2.55320006832599    0.03485844431571
C        -4.43236068358465   -2.81792393801849   -0.35565622693643
C        -5.32169249093996   -1.78613597770576   -0.43573065971261
C        -4.87003324570367   -0.46578216784168   -0.20695486188135
C        -5.71669651544246    0.64760429935216   -0.35434039033555
C        -5.22185227740383    1.91691658769869   -0.19238410390459
Cl       -6.25776962256536    3.28972161768458   -0.38528448134329
C        -3.86239962105169    2.12306335784037    0.10431004618298
C        -3.02934480374175    1.05378977981665    0.28237269352743
C        -3.50533827444577   -0.26641011995695    0.15672430553051
N        -2.67234617643207   -1.31841002214856    0.34451526494107
C         1.37094898040276   -3.77315849132265   -0.11448755653750
H         4.69062596026873   -2.97167010107807   -1.57702789933895
H         3.05769749487319   -6.64141140452897    0.48710203316263
H         0.89199087115202   -7.22510502251813    1.55741597830927
H        -0.96125174526013   -5.60148816500396    1.53585407787466
H        -2.30102958273702   -4.57844682386193   -0.21501200436249
H        -4.72046845422917   -3.83302008156796   -0.57399215869826
H        -6.35455299885231   -1.95460546857384   -0.69710039491028
H        -6.75156770281657    0.48942626908475   -0.61265127573364
H        -3.48920007613509    3.13147339694174    0.17962518297118
H        -1.97748723374336    1.20140818849240    0.46450673952048
H         1.49083235988142   -2.81354005406522   -0.59366631332596
Cl       -0.15482210053662   -0.63107219510486   -1.24628756439072
