89
 energy: -127.635807282612 gnorm: 0.000344782586 xtb: 6.4.1 (afa7bdf)
Ir       -0.95808254290795   -0.95973509540653    1.09652705537742
C        -0.36757702890646    0.70562246386110    3.79866959883291
C         0.45298730701515    0.55094546469469    2.54109624349386
C         0.90458121871293   -0.78772246498332    2.08814447586486
C         1.27824880510515   -1.79594633687655    3.15298046185098
C         1.98913852604608   -0.51678858910982    1.11154502868192
C         2.70325773903236   -1.56995045384359    0.34083782876607
C         2.18574137180666    0.82331193508662    1.03031936770893
C         3.17843514571402    1.47826925028634    0.12957245354387
C         1.24939354555009    1.50050852149177    1.91509327003009
C         1.27369643997963    2.99416404138326    2.00819465627581
C         0.56207777548275    3.60229387710203    0.78681981725490
C         0.77695272605229    5.11152226714618    0.74427422170343
C         0.28264942352853    5.76678820700817    2.03117100909460
C         0.96206017813338    5.14133842764407    3.24693364859533
C         0.71414941126369    3.63417240489594    3.27898778441937
H        -0.98664004617849   -0.17378455332561    3.96459377808133
H        -1.01561425013396    1.57402109762125    3.76492295608761
H         0.29935386241204    0.81667241885998    4.65473450146817
H         1.49008224524419   -2.77038464359096    2.72248783450227
H         2.18931550757347   -1.44291957437513    3.63819141882170
H         0.51594323003551   -1.89673540300028    3.91780217344481
H         2.39628073393257   -2.56247485388152    0.65494581897138
H         2.49146068790915   -1.45661832709212   -0.72191057575689
H         3.78046908304986   -1.47373393315425    0.47387716186034
H         4.03756811015112    0.82692504655079   -0.01549633194163
H         2.73303280534580    1.66200958452355   -0.84880953421171
H         3.52883548151888    2.42721551323746    0.52703092035223
H         2.32792883818741    3.29175752662056    1.94794057776254
H        -0.50319038786680    3.38046176182126    0.85184152908640
H         0.93646542569181    3.14564859411761   -0.12907936799702
H         0.25103848644447    5.53422683241610   -0.11486777759665
H         1.84144624350091    5.32413734821077    0.61655001927571
H        -0.79888844259967    5.63347083793191    2.11250091981469
H         0.48334597061762    6.84028517290511    2.00290121421941
H         0.57729106669985    5.59805454708892    4.16176422716125
H         2.03612813158864    5.33881359197145    3.20524930532682
H        -0.36042803559056    3.47073307258288    3.34730445492164
H         1.18998936521063    3.20035944477868    4.15948502193143
C        -2.77199029941035   -3.44556479558148    4.73326802036130
O        -1.91812646452426   -4.11602854764514    3.80211626623879
C        -1.41496324144796   -3.40791191946145    2.82114075452330
O        -1.67619890541109   -2.20704149887924    2.69881588814448
C        -0.52081626384011   -4.17809023789059    1.93148858501764
C         0.09370875309582   -5.33351311166462    2.39067566044383
C         0.96705993996962   -6.06001095632236    1.57358804415365
O         1.51792332081482   -7.15097460857156    2.12834945434890
C         2.40156507759101   -7.94967394757189    1.35957413596467
C         1.20514013111475   -5.61088976574328    0.27039723811178
C         0.56645061606807   -4.48187386754850   -0.20567760927437
C        -0.29400808213124   -3.74977430081390    0.60482716817178
N        -1.01695814690025   -2.65131811826352    0.13651808350765
C        -1.76284754156240   -2.71660592142026   -0.91716847535500
C        -2.78110979856511   -1.72187718782613   -1.10925687188524
C        -3.59734739821067   -1.73963807523719   -2.23127609214470
C        -4.66013496638733   -0.84288933526287   -2.27578462492092
C        -4.89181080931403   -0.02899566974045   -1.19712712472873
C        -4.03243844530787   -0.06923554583284   -0.06630544247329
N        -4.31159638421072    0.65899634256441    1.03593678182049
C        -3.29349536382741    1.20100210345485    1.90659951429463
C        -3.14779487760042    2.70235491378224    1.64262503683936
C        -4.47929270164457    3.42269505211085    1.84425372697543
C        -5.55096050009311    2.78180980243700    0.96572999684820
C        -5.60012234576951    1.28353149888813    1.26596349890070
N        -2.97007633050504   -0.88857595809664   -0.06144213730003
H        -3.59383271601047   -2.95825759286346    4.20817612345611
H        -3.14405224013423   -4.21755953763606    5.40063964521013
H        -2.20549265347395   -2.69872496619481    5.29109190688927
H        -0.08033680475993   -5.68104958644631    3.39535556371436
H         2.69670855252224   -8.76629120585999    2.01476392592241
H         1.90083487870709   -8.35400526624407    0.47651300048631
H         3.28778082976163   -7.38458900317322    1.06077456797504
H         1.88150677240442   -6.13881628869567   -0.38152800048462
H         0.74936426278785   -4.14329764322093   -1.21346056920495
H        -1.73726553933741   -3.58562884420391   -1.56614760516367
H        -3.39350622048586   -2.41410044200325   -3.04522776912944
H        -5.29530228853408   -0.78928898358529   -3.14645228719299
H        -5.70348687512974    0.67669715081122   -1.22926802199509
H        -2.33478135232248    0.69565450470593    1.71113314796034
H        -3.58319637965479    1.02441430735907    2.94671295537562
H        -2.80791223018750    2.84562136950523    0.61418616745627
H        -2.39498252561109    3.11941675267904    2.31215813758264
H        -4.37173143428838    4.48029994739985    1.59831509754461
H        -4.77834617248559    3.35244276100736    2.89276158661441
H        -5.30632956000995    2.94210557721107   -0.08623039265419
H        -6.52543787651816    3.23028006311237    1.16188190226538
H        -6.37532633948457    0.77877013397148    0.69206107421947
H        -5.83291900495991    1.14649712542251    2.32784040491931
Cl       -0.32987920917846    0.26751229993758   -0.73867320561476
