54
 energy: -84.838678385861 gnorm: 0.000752164287 xtb: 6.4.1 (afa7bdf)
Ir       -0.59706205118940   -1.37777619094996    1.11316307870742
C        -1.95517939940940    0.76205174423480    3.58202729950012
C        -0.83890165288716   -0.02708314665241    2.99905069720329
C        -0.57173365264930   -1.40754548632222    3.34864338760134
C        -1.37848566550183   -2.20469856265694    4.31564881088784
C         0.74483970054927   -1.73578339079521    2.88617419711003
C         1.53844477358575   -2.92076901394050    3.30970499261456
C         1.21652272791439   -0.62837429842671    2.10616275144943
C         2.58873079759666   -0.44954037138633    1.55857059462845
C         0.23239117591724    0.44061095430997    2.20236492374107
C         0.47128046484966    1.83360128513844    1.73213059562765
H        -1.77987259333970    0.85242117542513    4.65470830294520
H        -2.91394265461211    0.26733656425707    3.44779107404820
H        -2.00970512165577    1.75756179048917    3.15509503050670
H        -2.43685465727304   -1.97722222872741    4.22466277089792
H        -1.22996130996919   -3.27082043724115    4.16871828321125
H        -1.06645575662782   -1.95702199930132    5.33094061952321
H         0.90652987653652   -3.78747778785795    3.48031422093279
H         2.29830147686634   -3.17763495657748    2.57811698498323
H         2.03792225846910   -2.67511261886730    4.24784162801127
H         2.55415812603303    0.03022382835202    0.58327975014818
H         3.10811285058815   -1.39857783903264    1.47022333709815
H         3.15461616179492    0.19747447385607    2.22906359880749
H        -0.44690233340367    2.41294501025738    1.72321513396902
H         0.89030113062000    1.83347264941439    0.72857869618473
H         1.18625098339369    2.31811155071027    2.39772594569685
C         3.83106516747721   -6.73770890243858    0.65554514755453
C         2.64474294055044   -5.83410274950638    0.59443384506508
C         2.74477674615137   -4.54650451061485    0.07130451901623
C         1.65572318545244   -3.69892640610176    0.04949333450440
C         0.42047567039001   -4.13987639148991    0.52807152901077
N        -0.67796495462533   -3.27979035126357    0.46054856502057
C        -1.81524378618992   -3.72884033679720    0.02210152507955
C        -2.87362727430601   -2.78607600146696   -0.13380715580141
N        -2.58799385800320   -1.52346246209902    0.27248113242707
C        -3.45453112664454   -0.55891926203381   -0.02613056372260
Br       -2.97600225049886    1.20800214895717    0.37934806465121
C        -4.67872534634040   -0.78684769203914   -0.63881327477816
C        -5.02064939884121   -2.08264933353169   -1.00108644815734
C        -4.09424860946103   -3.07677128002826   -0.75928365301234
F        -4.33797538418755   -4.33788333057407   -1.13188328415190
C         0.30487188775407   -5.43315853680229    1.04512646871233
C         1.40979513442653   -6.25691601969484    1.08559345064104
H         3.55565966921724   -7.75457172690440    0.38498999637268
H         4.62120382426046   -6.39446620484402   -0.00630612100284
H         4.22371983006519   -6.76303982898870    1.67221520302953
H         3.68881493740016   -4.20492523935554   -0.32588352565893
H         1.72698463730837   -2.71072680756457   -0.37716703200947
H        -1.94320196982731   -4.75313992377918   -0.30842028294710
H        -5.34779061568596    0.03677328948127   -0.82864763754305
H        -5.96194015935552   -2.30977895091514   -1.47532591573663
H        -0.64061962056873   -5.77077729138934    1.44177070186547
H         1.31757477658968   -7.24807478918350    1.50257196855418
Cl       -0.04919770872841   -0.62144380668905   -1.08414726297326
