87
 energy: -139.143366979110 gnorm: 0.000901463063 xtb: 6.4.1 (afa7bdf)
Ir       -0.74901061227678   -0.70378820991603    1.32359525645351
C        -1.90552046777915    0.93994288641666    4.05770255443805
C        -0.75616780160933    0.32651408435722    3.33688432412435
C        -0.35084244134351   -1.03902943842615    3.48344561233721
C         0.89170915981944   -1.21087872213541    2.77307427200213
C         1.80047201663627   -2.38699661485929    2.87336045583070
C         1.21745429438426    0.02516545711416    2.14510686704378
C         0.18739092601171    0.99028857313048    2.48058378923890
C         0.34920972749463    2.43463437742383    2.29042802393462
C         0.18799458489806    3.30353912144127    3.36973481546986
C         0.46160985104920    4.64839704746962    3.23417590287441
C         0.91032994299646    5.17332600482856    2.02275791531804
C         1.24051497000250    6.59937657847327    1.90248928930297
C         2.31605721282499    7.01877794644521    1.12132465515096
C         2.64039486882858    8.35916659305904    1.02575872403124
C         1.89564962957250    9.30773467336513    1.70761587312013
C         0.82175457659763    8.90427948890299    2.48402553933444
C         0.49803299895737    7.56312264906673    2.58258007824468
C         1.05846159870453    4.30383256679019    0.94340636738471
C         0.78052607899521    2.95823303135850    1.07210086672963
C         2.49650945151798    0.32055301546692    1.44313752144573
C        -0.96078345658271   -2.02468676398883    4.42165254425745
H        -1.64870813227169    1.04020486189897    5.11314892522178
H        -2.78936170888812    0.30844330457687    3.99630100668334
H        -2.13582404546475    1.92107554075158    3.65482422009242
H         2.53061132797501   -2.19678205166317    3.66139401006191
H         2.33880207927965   -2.54806646794266    1.94319387622681
H         1.25800126621127   -3.29335445673340    3.12562034216072
H        -0.10229197053368    2.92011396570046    4.33449094536865
H         0.36399952998633    5.29601092757725    4.09241138075885
H         2.91601370614790    6.28850714644703    0.59913491826192
H         3.47981903763630    8.66615664900220    0.41869014855978
H         2.14843446680790   10.35522066218197    1.63255986530982
H         0.23242660100679    9.63988775067872    3.01250564844363
H        -0.35452815204864    7.26349742840556    3.17476157304777
H         1.37346338398657    4.69441056842223   -0.01202721002450
H         0.88216058591299    2.30499872363920    0.21982893638855
H         2.39254030464595    0.17883562574818    0.36791743430523
H         2.78462358283464    1.35561084404079    1.61484258573728
H         3.28279108454379   -0.34023522832785    1.79808182268498
H        -2.03399778113854   -1.87734099059492    4.50578904398880
H        -0.76451582201221   -3.04494269787379    4.10286762208008
H        -0.52300210023056   -1.89113893558780    5.41158399836773
C        -2.43252625014122    8.27665170658643    0.90156919697637
O        -2.60841723121779    6.88207258968865    1.13023271303886
C        -1.93558012586655    6.04898044578273    0.33159469154624
O        -1.17134627806089    6.42142110458914   -0.53027533174619
C        -2.26933632802945    4.62474621730205    0.58760557497213
C        -3.11062173998601    4.23656528070418    1.62820534498238
C        -3.49398619039787    2.91573336792410    1.74679667544521
C        -3.01034638706734    1.95488042865559    0.85631834792021
C        -3.58158641550900    0.59761694191343    0.83135553461404
C        -4.97280662940674    0.50489848438635    0.71560198609574
C        -5.57941776954140   -0.71934092012345    0.50106698418891
C        -4.77290694120854   -1.83848802765192    0.38701933265154
C        -3.39987153443225   -1.69482541213406    0.56493695387811
C        -2.49605626907975   -2.80573253672855    0.48690455947414
N        -1.24860929399381   -2.58988171729626    0.73794601852219
C        -0.34207927912666   -3.65957923677822    0.68810567682219
C        -0.63998909200331   -4.85902370293057    1.33978816214919
C         0.24633700371993   -5.91942122335303    1.27798216167114
C         1.42079237873211   -5.80293990165271    0.55532593181292
C         1.72271139610237   -4.60618349324730   -0.09228402984673
C         2.98533933349872   -4.51984742210844   -0.87511926809775
O         3.70895301054311   -5.46740455250460   -1.08606170815552
O         3.24739189558175   -3.29678707217561   -1.32024016532982
C         0.85107827316251   -3.52623479013650   -0.01548372863942
N        -2.81033007162788   -0.49588503698571    0.81535933938212
C        -2.13113166979869    2.33754648118003   -0.15351694372075
C        -1.77394254182131    3.66457697981907   -0.28982254855692
H        -1.37051776188750    8.51538893923854    0.82068327035638
H        -2.93437245162278    8.56874849489125   -0.02284307296515
H        -2.88052489460844    8.78074787487694    1.75325017173392
H        -3.48311138682133    4.97768498236353    2.31657964654494
H        -4.18094918063823    2.62679681977378    2.52809768215774
H        -5.55490859582836    1.41102704901406    0.76404842389127
H        -6.65052850188272   -0.79392425352892    0.40169763168271
H        -5.18428968088238   -2.81173309769110    0.17479358201145
H        -2.85805837604175   -3.78386397801205    0.18892270001179
H        -1.55330184277904   -4.94573949537483    1.90908517011414
H         0.01621996164939   -6.84088476889696    1.78922480249439
H         2.11792171622631   -6.62272243667720    0.48082285770917
H         4.06509835238454   -3.27218558960062   -1.84878601587033
H         1.07427684246517   -2.60316252285446   -0.52719423767033
H        -1.76702179543749    1.60561907041328   -0.85549850022000
H        -1.13273169497559    3.98372008083912   -1.09628080880125
Cl       -0.13860331641055   -0.30871866767300   -0.94352910698018
