57
 energy: -95.149692208559 gnorm: 0.000990428764 xtb: 6.4.1 (afa7bdf)
Ir       -0.64910370585553   -0.91935429681009    1.27012944184007
C        -1.85270019281606    1.56814387516242    3.30211209687154
C        -0.75842039715303    0.64040496533583    2.89883901002141
C        -0.53026818023054   -0.66432431571588    3.48051131583151
C        -1.34044726777196   -1.26578036021109    4.57620391711992
C         0.75212888371176   -1.12999723682120    3.03181224311616
C         1.46715095555241   -2.32362009888311    3.55937850212001
C         1.26294151533498   -0.17777761238281    2.09619830318967
C         2.62879106988133   -0.14859646770379    1.50078751105112
C         0.33621153803372    0.94020383954456    2.04404111259143
C         0.62197011112750    2.22494617825725    1.34960081273450
H        -1.54045368294672    2.10103602105149    4.20140540685210
H        -2.76401296416544    1.02571951353012    3.53918755989344
H        -2.05303851297719    2.30791945822258    2.53167056613884
H        -2.40182845594672   -1.08479774749256    4.43031616567944
H        -1.17138459595541   -2.33582383555796    4.64906164147981
H        -1.04855079010292   -0.81083882838960    5.52346059319082
H         0.78094552676019   -3.13735451277954    3.77809607541261
H         2.22213302136525   -2.67585267687809    2.86261054569125
H         1.96627102825146   -2.04598120403637    4.48851566586283
H         2.59282539183062    0.21850894505763    0.47801433626064
H         3.08926066567262   -1.13164763890214    1.51091755912544
H         3.25538356697421    0.53151695191742    2.07867011070039
H        -0.21628276846098    2.91103025088660    1.41451423820725
H         0.85138580073257    2.04949605011302    0.30025296384805
H         1.49392446394616    2.69139472320691    1.80756569981367
C        -5.51052368312700    1.89960271215994    0.50692090362186
O        -5.74705652159204    0.60087995304911   -0.02062400302610
C        -4.80248586201403   -0.32401066480238    0.03946142444989
C        -3.54851787230904   -0.17176611774013    0.63924506567336
N        -2.63617205521826   -1.13677965677661    0.66631408257634
C        -2.91124817664708   -2.32870496661207    0.08555673711681
C        -1.82981876443392   -3.25953601114531    0.10742352086061
N        -0.71004403016443   -2.84811487247847    0.61594647902622
C         0.40021039784031   -3.69778893969022    0.65734757538251
C         1.60335279376046   -3.27485743684490    0.08702330741818
C         2.70516349688513   -4.10307865898153    0.11587627913087
C         2.60936170888829   -5.34996449810520    0.73098545546670
N         3.75604478730178   -6.21236853503817    0.75986236385456
O         3.64685371755769   -7.29051044483507    1.31362936572748
O         4.77918993421128   -5.82026748245308    0.22929444329435
C         1.41768230676642   -5.77442078127790    1.31241605896573
C         0.31166658558092   -4.95078732813875    1.27012027996676
C        -4.14705556685273   -2.57762566781871   -0.52360723601402
C        -5.09082002749762   -1.57993409160989   -0.54587603694316
Br       -6.79032071020157   -1.82831140514824   -1.36150566958252
H        -5.36228900798489    1.85839833840007    1.58750178123805
H        -6.41189036624260    2.46633387985141    0.28426492528261
H        -4.65374531603456    2.36773494040766    0.01901000677215
H        -3.27322856134558    0.76118300080375    1.10567741046929
H        -1.93001163973535   -4.24581802521178   -0.33062517991424
H         1.64415039236055   -2.31222870319709   -0.39822400273201
H         3.64086170507384   -3.80661848452225   -0.33176432667726
H         1.37612261721245   -6.74435866343528    1.78314153701497
H        -0.61670168461916   -5.26402802545936    1.72111303811258
H        -4.34146607032409   -3.53397331273650   -0.98077510642566
Cl       -0.27573755189497   -0.31585699033031   -1.00879187475059
