58
 energy: -91.269861802036 gnorm: 0.000539959461 xtb: 6.4.1 (afa7bdf)
Ir        0.02600427873150    0.35053486097942    1.53317703090205
C        -2.34630008973804    1.14335189888061    3.60430595699434
C        -0.93977738069571    0.70833058291881    3.39662466123956
C        -0.45879673615992   -0.65984506343965    3.47885962627518
C        -1.27678266018387   -1.89300815594112    3.67210440594793
C         0.93821844249389   -0.59833242029921    3.35541749496745
C         1.86640223062820   -1.75766503437192    3.41283240537251
C         1.36427465875329    0.81127317327295    3.38318770505034
C         2.78914751812886    1.23621509038558    3.45290886291676
C         0.22709435958553    1.60637630559360    3.45526090792739
C         0.12955391589626    3.08289071717187    3.63289004585643
H        -2.58675627406932    1.05089354149411    4.66475567724960
H        -3.03893483291164    0.51284675495677    3.05077317069203
H        -2.47990145735028    2.18109917930805    3.31490210620742
H        -2.33169658903555   -1.65133698752353    3.74386755183611
H        -1.13223071777878   -2.58407263494366    2.84066467283066
H        -0.96877014785434   -2.39334449333776    4.58905854549223
H         1.39440050403034   -2.65445423107413    3.01967630419280
H         2.78456330045273   -1.56526719364238    2.86291998403151
H         2.13706339726761   -1.94665865835160    4.45279942966811
H         2.89391143431715    2.30397653103436    3.28374001991060
H         3.39446289067692    0.70677022943755    2.71921335899204
H         3.18958745991853    1.00110401296086    4.43977121658382
H        -0.36471070821883    3.30443339701123    4.57768880981757
H        -0.45118999359384    3.53376812299048    2.83043208882922
H         1.11456618507794    3.53865933941100    3.64315592751688
C        -2.71246353320781    4.12953792845546    0.68055749149450
O        -1.44835681919279    3.51790343576783    0.44416892715363
C        -1.36169809970281    2.31374133873198   -0.12803174342450
C        -2.49879104666407    1.69196000071919   -0.67795830074626
C        -2.75347886097278    0.33886970376197   -0.74146280999055
N        -1.90700536775740   -0.63492915255371   -0.48839424863411
C        -0.85753310001172   -0.81647916248201    0.15883072719031
C         0.08176893307391   -1.91042678349327    0.07617066112385
N        -0.18230687053043   -3.03522430229081    0.61658127383201
C         0.67599736338235   -4.11473562881343    0.56406293150883
C         0.64482281674757   -5.01983672846395    1.63148005254527
C         1.44809950617173   -6.14387245188713    1.62052936893721
C         2.27204575311495   -6.40166304245094    0.53858554787043
C         2.28934268130972   -5.52401895776768   -0.54478085947364
C         3.15901109762557   -5.83894802805739   -1.70204581212174
O         3.81272677998088   -6.85411525489901   -1.80728289979395
O         3.16826188533630   -4.88845393723367   -2.63879683840672
C         1.49752423034530   -4.38187205407721   -0.53237224964496
C        -0.02470711500058    1.77706684494058   -0.03425097418224
H        -3.15162025610515    4.49104352625960   -0.25129762812955
H        -3.39867042534618    3.43877847642131    1.17255038898882
H        -2.50303098135712    4.97926819750918    1.32704492679109
H        -3.33106950983400    2.33263353340917   -0.92631979269761
H        -3.74427451747432    0.00498440009775   -1.01634444539576
H         1.05008318282206   -1.68106589212559   -0.39365178542049
H        -0.01066021980314   -4.82277931336687    2.46523406812300
H         1.42499003569251   -6.82955369453387    2.45330003014452
H         2.89820988912288   -7.27956745031025    0.50419058970120
H         3.74397846804131   -5.13278553905000   -3.38484011987432
H         1.49328008997570   -3.72876855521979   -1.39117516036332
H         0.68478242266175    2.56910069990183    0.22122403012592
Cl        0.58336359921036    0.97923697822833   -1.52023731453446
