60
 energy: -87.202768265351 gnorm: 0.000552937955 xtb: 6.4.1 (afa7bdf)
Ir       -0.69761149422253   -0.81108808445799    1.87082942382988
C        -1.69364706633132    2.24783702817113    2.85459128079479
C        -0.81631641411025    1.05673311849841    3.05166552572626
C        -1.00740523632826   -0.01862360592284    3.96829515610479
C        -2.13987837074475   -0.21003067465103    4.91685795489845
C         0.16906602444258   -0.84619817519323    3.93572762097048
C         0.43805620586895   -1.95949715170175    4.88931418776542
C         1.13320387415338   -0.21536974751833    3.06412533287069
C         2.57373449220547   -0.58730801724984    2.94710833681749
C         0.53124742195419    0.95595416978953    2.52499551898172
C         1.18757676547015    2.01008992944804    1.70701513827690
H        -1.27337866775221    3.10021105008847    3.38902355437827
H        -2.69924787108545    2.07333123771743    3.22553213841280
H        -1.74994167878447    2.50774397581999    1.79971088490299
H        -2.98093386737289    0.43238914869378    4.67492683677646
H        -2.47333609264309   -1.24498712570620    4.93796887921773
H        -1.79709292289301    0.04750523993720    5.91962787652511
H        -0.44126229315649   -2.58347878239644    5.02540996301132
H         1.26595215647883   -2.57866111033550    4.55838688935985
H         0.70139066194847   -1.53575723448698    5.85926636478256
H         2.97094813608839   -0.32831825125378    1.96892724280707
H         2.72901752380634   -1.64672798394518    3.12643814891424
H         3.14115051216956   -0.03200886076563    3.69505872977954
H         0.57221043744519    2.26780061027025    0.84687266022486
H         2.16434421316608    1.69333090595119    1.35477650330893
H         1.30628362500637    2.90807124820852    2.31395261098945
C         2.96974230972202   -6.13604528513534    3.06101485610266
C         3.62390289550249   -5.47341406596659    2.12540875615177
C         3.08578162086688   -4.39206499775228    1.23547503407690
C         1.62662713231870   -4.02372850312645    1.48788296718042
C         1.17728589091530   -2.90210782336258    0.53926451045710
N        -0.17366636218876   -2.49690013119289    0.84634765284220
C        -1.14919285612888   -3.15677157229305    0.32138725430817
C        -2.47957083700043   -2.72598882345072    0.64199644265573
C        -3.64204379462834   -3.28511883000591    0.11603031736557
C        -4.86897217282437   -2.73692472427960    0.45843999805030
C        -6.11409925534938   -3.33028426266970   -0.12116130199040
O        -6.11162066083825   -4.30070244928760   -0.84152659683921
O        -7.20057231771382   -2.66508744581972    0.24821400678905
C        -8.45262851236806   -3.13712565622638   -0.24863876634027
C        -4.89429755444579   -1.63909900330365    1.32351324102355
C        -3.69992099291054   -1.13979745553555    1.80401741289072
N        -2.51705438921669   -1.66401577467550    1.48557325096096
H         1.93363475414681   -5.95913987949941    3.29042645673220
H         3.45422222709038   -6.90104312208365    3.64343639797876
H         4.66625225826384   -5.70344021228934    1.94178279312834
H         3.71815914658545   -3.50772624745477    1.35773504261857
H         3.20614348751173   -4.72046331423895    0.19863622704906
H         1.49871780891559   -3.69579561243385    2.51927800220725
H         0.99453455960511   -4.89824259718471    1.32919425033257
H         1.83036396306347   -2.03624498513473    0.65105245957239
H         1.23681847113079   -3.25498359929902   -0.49480170077760
H        -0.98694210814932   -3.98193219740562   -0.36373638720562
H        -3.59771470520674   -4.12514997445216   -0.55947990799386
H        -9.20096836868004   -2.44258778512718    0.12173943329548
H        -8.44334819880937   -3.15300630374107   -1.33950298158255
H        -8.64586830090515   -4.14643564592965    0.11800116839081
H        -5.83077317316326   -1.18924411904252    1.60807741845093
H        -3.68928724865303   -0.28664052114917    2.46464887484817
Cl       -1.01121479123624    0.16595906352452   -0.28711034314263
