61
 energy: -105.016684431514 gnorm: 0.000887966419 xtb: 6.4.1 (afa7bdf)
Ir       -0.29900034285315   -0.70768331410516    1.33128162502369
C        -1.63332420226775    1.27621052820948    3.86859366467956
C        -0.46832608732633    0.59023285877798    3.25426459068976
C        -0.07827339428460   -0.76267824996546    3.56185864607568
C        -0.74720172688543   -1.63257972124891    4.57017752593198
C         1.21088347368454   -0.99610524677230    2.97767077375503
C         2.12893478443677   -2.11529766575295    3.31881582497756
C         1.54991993052269    0.15071939934194    2.18718670381566
C         2.87930641320240    0.39842274789969    1.56777007564685
C         0.50455586646285    1.14563832519918    2.37831899841181
C         0.62094876202662    2.55794825552702    1.98274354054892
C         0.56830390437409    3.54546420314339    2.96480579795183
C         0.72710000426860    4.86768368472215    2.59586292077988
F         0.67977169969156    5.81549063788022    3.55444706515401
C         0.93531923343483    5.25773206258220    1.28538607884412
C         0.98084515897946    4.25292738933896    0.33510697081960
F         1.18092442232945    4.59410665245294   -0.95452421110823
C         0.83156608928244    2.91737179307202    0.65399039677331
H        -1.78706215954320    2.26088245616186    3.43994971441986
H        -1.44958346389501    1.38008509521381    4.93860565053904
H        -2.54369108900214    0.69147328634897    3.75443163155389
H        -0.52828565143658   -2.68107904079682    4.38965832619371
H        -0.37767398528748   -1.37654191399062    5.56370873723404
H        -1.82332494734994   -1.48508916307663    4.56381443499781
H         2.67240617485966   -1.83962607274893    4.22392222037510
H         1.58751703587555   -3.03568393325722    3.51771080556120
H         2.85338633526962   -2.29072992960554    2.52971412181531
H         3.23634795054571   -0.48102851950108    1.03836872062757
H         2.84035575396049    1.23559069311686    0.87802987229205
H         3.59557510746344    0.63083706219751    2.35644793932455
H         0.43260714295142    3.29825466297450    4.00465836256902
H         1.05529498043537    6.29381194593342    1.01651939799217
H         0.84646089923040    2.17454769573655   -0.12816123530703
C         3.84202773051524   -6.29616499769525    0.82458983783053
C         2.69934046958643   -5.33774828998798    0.81177531909026
C         2.81962287868766   -4.07815544821189    0.22738266517658
C         1.77299995736715   -3.17951231358653    0.24783395891774
C         0.55594860702561   -3.53973414468825    0.83149348169073
N        -0.50673029817413   -2.63445062803604    0.79489804816980
C        -1.69309775667091   -3.05132255216713    0.47154992233322
C        -2.71998368641947   -2.06883091553458    0.33999892988398
N        -2.34417474664732   -0.80044414130278    0.63994217594203
C        -3.18896226972232    0.18954146903020    0.36638232352848
Br       -2.59641850082220    1.95856370219758    0.62976732446497
C        -4.47267792690350   -0.01517043200395   -0.12453704690928
C        -4.90027017126523   -1.30918624074131   -0.38102537177609
C        -4.00069590033061   -2.33511882111520   -0.16147757115319
F        -4.33166107248776   -3.59943338893098   -0.43337989998097
C         0.41994581208911   -4.80393691319938    1.41317663943363
C         1.48565134898537   -5.67842497197202    1.41008143325070
H         3.50234707533632   -7.30394055385511    0.59594870977037
H         4.60686397068939   -6.00718538243376    0.10930500933666
H         4.29291291804333   -6.31950597426727    1.81682240961230
H         3.74645744642544   -3.80085690548057   -0.25138891855911
H         1.85720996510239   -2.21431917085987   -0.22827771420629
H        -1.89090669268356   -4.08592993990843    0.21695194797643
H        -5.11832362249397    0.82943607861789   -0.30263077245529
H        -5.88923750976693   -1.51578076488968   -0.75874363021563
H        -0.50656025683623   -5.07778475263916    1.89376610389969
H         1.37849875601924   -6.64562949447371    1.87659611966166
Cl        0.12074040213481   -0.16550377689246   -0.95197812368477
