76
 energy: -124.603918840228 gnorm: 0.000331661410 xtb: 6.4.1 (afa7bdf)
Ir       -0.56357391346451   -0.64549377159941    1.56411794812959
C        -1.96933799723548    1.07162183357293    4.17350530920166
C        -0.76791329784327    0.43976768411834    3.56286444218532
C        -0.37259688525630   -0.92445145038876    3.76377994451583
C         0.93752062923826   -1.09694624192207    3.18454624404435
C         1.84158355052451   -2.25679985358563    3.41413316544985
C         1.30180348903384    0.11932162717828    2.54270436058387
C         0.23570400978091    1.08242840702036    2.77092746558800
C         0.36238471603835    2.52874545928645    2.53344645555442
C         0.27956180802083    3.40507631183568    3.61525393344125
C         0.46988090452811    4.75981813025389    3.43291435050156
C         0.74559416854047    5.28162461676421    2.16967111222180
C         0.97234778534116    6.72253517383725    1.98419184834805
C         1.98084169680251    7.17499408019240    1.13525303084350
C         2.20446620607928    8.52917085088763    0.96748672796424
C         1.42074019092227    9.45363597183206    1.63898900589447
C         0.41335880762554    9.01498629364609    2.48295183769421
C         0.19260069767537    7.66107880319121    2.65745169284891
C         0.81201647964655    4.40256433525124    1.08940084323191
C         0.62502619600325    3.04615641187002    1.26589471571759
C         2.64313333975335    0.43097050603963    1.97873965599533
C        -1.06126265987474   -1.88997221682975    4.66563363598528
H        -1.81613291460204    1.14553003071382    5.25067895610009
H        -2.85994008019837    0.46841414834909    4.01158302396890
H        -2.13672938487460    2.06733276799511    3.77441886483657
H         2.37449122637737   -2.09485747954895    4.35208394201574
H         2.57792426210378   -2.34632903528778    2.62069593216013
H         1.29077417275560   -3.18956779186764    3.49793903156363
H         0.10196175284016    3.01897186434902    4.60672682244396
H         0.43259734979902    5.42099583012217    4.28540031333731
H         2.60828305997453    6.46133298989422    0.62141131495025
H         2.99422268058367    8.86653175709538    0.31190550092871
H         1.59486698953414   10.51127755373921    1.50517392910653
H        -0.20211529483405    9.73244907167642    3.00634958984205
H        -0.60402247761398    7.32933415319856    3.30718364402165
H         0.99925741539451    4.78841376503500    0.09872747176056
H         0.66040276810139    2.38349528164043    0.41400853088656
H         2.99787445630800   -0.36904075605175    1.33372403959233
H         2.61970850915314    1.35662151970367    1.41179967808557
H         3.35250594718616    0.54290569641456    2.79959524733880
H        -2.14023459467124   -1.77152987134389    4.61557341649910
H        -0.80070615905682   -2.91533436225515    4.41911605658044
H        -0.74932288770085   -1.70039303488421    5.69349414444028
O         3.07469235517219   -7.41756698283102    1.14299478145512
N         3.28167451879691   -6.32326054513745    0.65141433911985
O         4.32588070998138   -6.00547503062460    0.11279535153891
C         2.22832063181173   -5.35015031271501    0.70725831220010
C         1.01463060368404   -5.69001350068152    1.29915682722166
C        -0.00285105958306   -4.75973632272016    1.34162312760920
C         0.19506165429725   -3.48513982393905    0.80087289729086
N        -0.82627763917247   -2.53206447338744    0.83971244876509
C        -2.01827734268989   -2.83579918995810    0.43185984375630
C        -3.00167451028240   -1.80001590398183    0.45654723745349
C        -4.33480968660442   -2.00585139423928    0.04746011007550
C        -5.20615243908957   -0.95495408189082    0.06200806037083
C        -4.73229629285953    0.33014164009893    0.41136250754280
C        -5.56375450336103    1.46382317660054    0.37590326798908
C        -5.05076637889634    2.70549835295341    0.65663960317846
Cl       -6.06441803786318    4.10408781599801    0.60116556333702
C        -3.68752101637937    2.86128355259898    0.96901875667283
C        -2.86827778688451    1.76961580821365    1.04027211628901
C        -3.36197209783895    0.47382927356739    0.78664530603341
N        -2.54601177607898   -0.60416409702252    0.86920442227730
C         1.42240377422404   -3.14797514353871    0.22360234368488
C         2.43482920857899   -4.08229455225541    0.16732300404346
H         0.88775310106404   -6.67873387900334    1.71242048545078
H        -0.94392542279432   -5.00608536300892    1.80834421563817
H        -2.24936092005045   -3.81244601170423    0.02157753988992
H        -4.64199198521213   -2.99230485713689   -0.25878895764979
H        -6.24175760548804   -1.08172815877774   -0.21204588253180
H        -6.60165644924299    1.34545499542312    0.10886187712185
H        -3.29536911642914    3.84932242597330    1.14601960045549
H        -1.81702054302331    1.89667956871995    1.24294069227850
H         1.54887353211988   -2.16353675175490   -0.20110046071378
H         3.38586654292252   -3.85114739478990   -0.28692856607802
Cl        0.03776625872946    0.00711909976885   -0.64586494815042
