78
 energy: -116.630641961259 gnorm: 0.000603918082 xtb: 6.4.1 (afa7bdf)
Ir       -0.51044344735055   -0.70437556778259    1.39400334232984
C        -1.69717914341066    1.66530856072166    3.59681779452332
C        -0.55957318988476    0.90377456478589    3.00182990683542
C        -0.08511237128157   -0.34268219447905    3.55345325219234
C        -0.62733291190855   -1.03274324214043    4.75790161548409
C         1.16256985238272   -0.66352582785047    2.92190123530779
C         2.08493030878785   -1.74103037145813    3.37566190947489
C         1.39506829043052    0.29730062402104    1.90029977982936
C         2.63760042912689    0.42191404161186    1.08191472167532
C         0.32575137622842    1.29091458786571    1.95769068147012
C         0.38346909303241    2.59284713596702    1.20396640649456
C        -0.88120162627046    2.93915604494434    0.40956081836606
C        -0.65529330913065    4.22286612740571   -0.38437615443078
C        -0.29696444483510    5.37457112392465    0.55170171278968
C         0.94545698497535    5.03219189003474    1.36968175703590
C         0.73303397968010    3.74415497701999    2.16073143451173
H        -2.54353766243995    1.01214263051419    3.79948509046062
H        -2.02336844722442    2.47828344740429    2.95837667839584
H        -1.36916399793105    2.08776321450526    4.54759326610309
H        -0.69256081045359   -2.10511337664727    4.58638105167060
H         0.03847200596137   -0.86353524170600    5.60423323508315
H        -1.61495940652388   -0.66338043818065    5.01401648000211
H         1.52569020440683   -2.57833798973207    3.78402517503682
H         2.71610011444161   -2.09896770443494    2.56705296346469
H         2.72680416614726   -1.34397298260681    4.16282770313221
H         3.21491392220429   -0.49721997968071    1.11703359489582
H         2.39874594479332    0.64307558425901    0.04387774900559
H         3.25243703822226    1.23307585035704    1.47218672113421
H         1.19558003092241    2.51034037264765    0.47541314494582
H        -1.73029016444166    3.09138772237685    1.07576680587881
H        -1.11682149007805    2.11814825246322   -0.26876570841050
H        -1.55661166645187    4.46911887679942   -0.94931230893392
H         0.15395635922828    4.07218503643078   -1.10242409172563
H        -1.13401945099762    5.56976652054536    1.22641399662451
H        -0.12029844372826    6.28291710976097   -0.02765552493858
H         1.17607037781608    5.84980777607452    2.05598007954120
H         1.79798157059637    4.91239984831971    0.69704899241242
H        -0.07557888343112    3.89009105538781    2.87714994031071
H         1.63790401488303    3.49826604967285    2.71978384116941
C        -1.13669367493354   -6.61724476872046    4.17986889341785
O        -0.26799348308276   -6.19087567801005    3.12930365955831
C        -0.24368428677944   -4.89937015393121    2.82939110415348
O        -0.93520316101382   -4.06071341723330    3.36695212747285
C         0.75715235763098   -4.58995021191198    1.77156541463275
C         1.90323256815587   -5.35974531656795    1.66569787228069
C         2.92041954922744   -5.02681151481735    0.76510166223176
O         3.97940584284188   -5.85560634031488    0.74181225338190
C         5.05197282634297   -5.58403435812566   -0.14405327324214
C         2.77773639324308   -3.87734762990961   -0.01624624590733
C         1.63799634405061   -3.10440879825049    0.08684097239383
C         0.60985873269034   -3.44999819661910    0.95946383223745
N        -0.55364607875547   -2.67172879573376    0.97962823352993
C        -1.69766896749072   -3.19651487980990    0.68755707378454
C        -2.83155178524297   -2.31692969733933    0.70472194550863
C        -4.11701784372761   -2.69769525072099    0.33461472452048
C        -5.13656639955688   -1.74353020792090    0.33947412860728
O        -6.40511222905635   -1.96241782889434    0.01271100344287
C        -6.80954673666341   -3.25965162422688   -0.40204595476985
C        -4.79175899817757   -0.43116418957927    0.71734363932627
C        -3.49672904864685   -0.13977109046158    1.06852389129849
N        -2.52489918634652   -1.05341970499984    1.07992197672682
H        -1.41189156216276   -7.64424394636599    3.95401396306803
H        -0.60356342931312   -6.57074880415469    5.13088263317562
H        -2.01768124878958   -5.97565605205528    4.22540827827987
H         2.03136439164834   -6.22861355895395    2.28965311656450
H         5.53294389405871   -4.63290887167845    0.09714665410208
H         4.71581410112632   -5.57864659627484   -1.18370801322564
H         5.76081455260090   -6.39591480762944    0.00332600142830
H         3.54497849435705   -3.58200795064347   -0.71274772301832
H         1.51498344367008   -2.23011305044489   -0.53388493582353
H        -1.79266085198332   -4.23838945225175    0.40368184874734
H        -4.29151292368781   -3.71883569816514    0.04023089430119
H        -7.87459804408254   -3.17765060313121   -0.60608085403794
H        -6.64362951630279   -3.99471868663898    0.38805335913702
H        -6.28491183652411   -3.56018620763428   -1.31151955512823
H        -5.55271624059931    0.33082049838501    0.72177535077473
H        -3.21826754319915    0.86507676497091    1.34647437132652
Cl       -0.41563161199895   -0.38269643238218   -0.97494041344766
