57
 energy: -91.552856981116 gnorm: 0.000988894446 xtb: 6.4.1 (afa7bdf)
Ir        0.42677207173407   -0.00489556984664    1.77319464723900
C        -2.44288144837542    0.70241364894930    3.47361311860923
C        -1.11673039311459    0.02838672898469    3.41877285651942
C        -0.89840937618161   -1.32415531965706    2.98853540033786
C        -1.95473242714713   -2.28381220606063    2.56198435428965
C         0.46736703275649   -1.67917637045433    3.30154462869572
C         1.01139406420659   -3.06639587099199    3.26562775525193
C         1.09977721927758   -0.53443528510583    3.85913995444605
C         2.45469362894574   -0.45579564729452    4.46651165566949
C         0.13131248763058    0.54569233118585    3.88989761835597
C         0.36300603182476    1.84545060571145    4.58638553084679
H        -2.97682205602785    0.34200008858441    4.35383173089464
H        -3.04556190539464    0.46886587189415    2.59990131313610
H        -2.34418120739283    1.78017272086004    3.55969544262334
H        -2.77656281296360   -1.77454669605483    2.06703464553253
H        -1.54993460533205   -3.03934967246308    1.89382793604439
H        -2.35058500282310   -2.79143472956126    3.44221434342993
H         0.61068973526930   -3.62887567047363    2.42689572388666
H         2.09487920851282   -3.06761845451234    3.20039638165297
H         0.72356497164423   -3.57754693848581    4.18494126902315
H         3.00326821106305    0.39845508673580    4.07348426611143
H         3.02847637387643   -1.35771298627754    4.27816519888982
H         2.35439551986309   -0.32073476088331    5.54364002274858
H         0.43010124850080    1.67152205273183    5.66053969993151
H        -0.44471957666827    2.54812729738804    4.40512767849402
H         1.29989675045159    2.29140582591113    4.26027103493428
C        -2.34809016517791    6.21263065725870   -3.11304217276799
O        -1.94704890067300    5.20169332193360   -2.18643186007281
C        -1.60065993752667    4.01277935535856   -2.65470782881038
O        -1.59379202864701    3.69124682616544   -3.81965757998540
C        -1.19333218842995    3.08342979425731   -1.55240786784637
C        -1.27821722212675    3.43624375500503   -0.20248253300130
C        -0.87270530457906    2.52421667400586    0.75260290380219
N        -0.40464633133617    1.31587016650463    0.44555200597219
C        -0.30322106322508    0.96684022277481   -0.86235273801198
C         0.29164801101190   -0.31899927466531   -1.07449115138637
N         0.70119513932131   -0.95126827937291   -0.02081386384969
C         1.32607436222316   -2.19850599646690   -0.15444429389458
C         0.74679423616830   -3.20831147195076   -0.92451637694866
C         1.37920274226142   -4.43050678989113   -1.05083212729824
C         2.59708084939789   -4.62092559224130   -0.41893361772504
F         3.22071485401952   -5.80853026068637   -0.54872285435958
C         3.19208113232806   -3.63007652641313    0.34641519078027
C         2.54484410831096   -2.41807625013082    0.48762397177278
C        -0.69871788918187    1.83071421988189   -1.88219450049474
H        -2.06587925071675    5.92812304350328   -4.12719727116441
H        -1.84780531061085    7.13281161304201   -2.81766030834440
H        -3.42933298716516    6.33540701963122   -3.04812728720777
H        -1.65088201479821    4.40410759893146    0.08851400249229
H        -0.91394945753825    2.77423324977425    1.80181337327042
H         0.43887054270744   -0.70916147958339   -2.07467558968639
H        -0.20944131938932   -3.04311703430142   -1.39611031713939
H         0.94544670412571   -5.22864770450513   -1.63175544879507
H         4.14560522217372   -3.81602848498727    0.81457552036982
H         2.98751114412958   -1.61818602123541    1.06152809854179
H        -0.61213669785316    1.54254662455275   -2.91833164775949
Cl        2.43739227664552    1.20909794304149    1.34199596196408
