80
 energy: -121.267085465308 gnorm: 0.000211169124 xtb: 6.4.1 (afa7bdf)
Ir       -0.76127008255357   -0.15791439079576    1.31134535451639
C        -2.05769019662193    2.08639681616573    3.65407842435976
C        -1.02971198454122    1.10596921751901    3.20593986356603
C        -1.14964435979056   -0.31318093136082    3.49208655786184
C        -2.29625741808131   -0.93877926401899    4.21236455913289
C         0.11866462490969   -0.92163144367314    3.25664740007268
C         0.51875970332177   -2.29333192502914    3.66972324654372
C         0.96715272428799    0.06712705982298    2.66236797721836
C         2.42007160607387   -0.10275689311897    2.37208571883781
C         0.27250200246970    1.34732693638520    2.70100412621128
C         0.98429502612713    2.65718387800494    2.50784067351752
C         0.31742707153407    3.61342483584918    1.51746009971952
C         1.15227458608570    4.88032165662849    1.36060022455168
C         1.34641757379678    5.56629383487113    2.71036422521749
C         2.00344946088000    4.61228251601572    3.70411864420905
C         1.16341528771972    3.34936315920128    3.86954497792405
H        -3.05944160742122    1.69204386646443    3.50819182119295
H        -1.97616639093260    3.03585682268968    3.13766739406529
H        -1.92323786452987    2.25858692162677    4.72328492330102
H        -2.29845153057783   -2.01738846258749    4.08472799266880
H        -2.21213609260386   -0.72282336390231    5.27784487770606
H        -3.24573335951526   -0.54104407865076    3.86399421133253
H        -0.31683736669696   -2.98599234757520    3.62511917682727
H         1.33000695837357   -2.67657501432574    3.05768402915392
H         0.86645961409745   -2.25104093565725    4.70269006006736
H         2.67246463624057   -1.15105948867716    2.24252374199225
H         2.70132267386266    0.43564653285468    1.47053516792955
H         3.00406462982086    0.29294167764049    3.20347411652362
H         1.98140169702923    2.43791131311532    2.11461485807146
H        -0.67740273825326    3.89315952464903    1.86294557898014
H         0.21468114809486    3.11332608498578    0.55444916774756
H         0.65147547066493    5.55901840441345    0.66737537094560
H         2.12719837883080    4.63012187943863    0.93630912686340
H         0.37589251226525    5.88473317326425    3.09934381209128
H         1.96409299797963    6.45849871975604    2.58979364559633
H         2.11824948541605    5.10429275726836    4.67221906138606
H         3.00051512971923    4.34713016376170    3.34498591827160
H         0.18932937679136    3.61885174644930    4.27754096350865
H         1.64977552416995    2.66823520680787    4.57059472512395
C        -1.41856722379122    8.15805986712260   -0.79619915680659
O        -1.69841372175426    6.76842217326050   -0.65943886663116
C        -2.62291306425571    6.42188428940430    0.23944250836223
O        -3.21037685744073    7.22067076886051    0.93605330213610
C        -2.84387605608184    4.95408373871105    0.29065695434046
C        -2.14912311680945    4.07837648378347   -0.53890222120830
C        -2.38161655932251    2.71858135156035   -0.46069431805416
C        -3.32172226605235    2.21559413150484    0.43648978056971
C        -3.67795196528191    0.78946816538736    0.35661957140503
C        -5.01442808042918    0.48521097208659    0.07576756315520
C        -5.38826899528104   -0.81134989828553   -0.22715400043730
C        -4.40169910070955   -1.78127198377695   -0.27526916656858
C        -3.10019064359792   -1.43027368847280    0.07327708227418
C        -2.02297373487831   -2.37654892416298    0.05232502313476
N        -0.86252928833373   -1.99638415022428    0.47576860185637
C         0.20430433130492   -2.90785277255259    0.46929615119998
C         0.01160875249418   -4.22273217292600    0.90379169341716
C         1.06080174903896   -5.12078648534742    0.89288401042882
C         2.29706747484670   -4.69696081075656    0.43252922769813
F         3.32081855965949   -5.57282933360534    0.41393980243367
C         2.51322511638803   -3.39786667721098    0.00115339993881
C         1.46378189936939   -2.49978144632180    0.02879973743507
N        -2.74729420423450   -0.16880735037467    0.43096746416324
C        -4.03613999048589    3.09698254515812    1.24902056246451
C        -3.78620267274341    4.45278565616061    1.18826732196296
H        -2.28575912198745    8.67902714040886   -1.20624561937065
H        -1.17407790089654    8.59189228697616    0.17508997542908
H        -0.57346467254214    8.22801122301371   -1.47544491622295
H        -1.43108849873802    4.46623267922877   -1.24263177011606
H        -1.85326420710386    2.04443789698930   -1.11460076912069
H        -5.73555476174197    1.28655323260229    0.06525372920903
H        -6.41577723193324   -1.05133767091736   -0.45007085876146
H        -4.62290414653226   -2.79611373966503   -0.56227759645493
H        -2.18260575081437   -3.36798887639529   -0.35650259704749
H        -0.95145415660637   -4.53337568013725    1.27779937166143
H         0.93332993444180   -6.13563142620722    1.23313353826426
H         3.48923539301992   -3.10568748664161   -0.35127031891155
H         1.59832888979533   -1.48852678272235   -0.32079875389905
H        -4.78047678698558    2.72159462801188    1.93464593124816
H        -4.31988393671946    5.14688036608038    1.81946004144531
Cl        0.20227170516679    0.59992259421828   -0.72152923082242
