61
 energy: -104.353361321268 gnorm: 0.000396932509 xtb: 6.4.1 (afa7bdf)
Ir       -0.26101587118082   -1.01034784761945    1.52327407784536
C        -1.88970600197584    0.70585587993264    3.97261258194599
C        -0.60922590460010    0.17343497804829    3.43059842742575
C        -0.04290852218995   -1.10400183079443    3.74849893818572
C        -0.60533555517409   -2.07484945771683    4.72838171533906
C         1.28295344488421   -1.15837563046048    3.18179335799466
C         2.30949337380959   -2.18695017705536    3.50907835520185
C         1.49549567805698    0.03286473038784    2.43839238368547
C         2.78090834666982    0.47520416595211    1.83372487345586
C         0.30265560318598    0.85905874875236    2.56966836989943
C         0.22240086335769    2.27976679333557    2.18582205370912
C         0.06887652550972    3.24085677767524    3.18368565692810
C         0.03690597217476    4.57630515015551    2.82962304015976
F        -0.10769700941293    5.49983290184967    3.80241623987702
C         0.14732000209324    5.00348791877011    1.51850228634395
C         0.29386639492274    4.02407157165320    0.55162795965452
F         0.39988026226798    4.40289105187523   -0.73827528702194
C         0.33291578958443    2.67658359579359    0.85586496026147
H        -2.17787542812065    1.62433507538920    3.46914121997893
H        -1.76090184591865    0.91954179746456    5.03406973950603
H        -2.69257224193312   -0.02242059335673    3.88247435578673
H        -0.28218308747391   -3.08863115850749    4.50786270992662
H        -0.24997308764982   -1.81868453218536    5.72716247941931
H        -1.69093213631156   -2.04077321117940    4.73712772684526
H         2.79641068834339   -1.90585063997778    4.44367449208492
H         1.86218084393625   -3.16805358186447    3.64361762895612
H         3.06953961857655   -2.24892771631204    2.73641864750164
H         3.34767007158866   -0.36956698439234    1.45228488987936
H         2.61038983468102    1.17989212678541    1.02521299660347
H         3.37937085763569    0.97059689416346    2.59917563153808
H        -0.00260191789123    2.96470787577642    4.22288313714252
H         0.12196095331072    6.04946850520978    1.26249206156453
H         0.42955209936011    1.94899608468579    0.06485920682210
O         0.10100723053238   -7.67206396844028    2.69573137581916
C         1.17828308553469   -7.35464923987178    2.24419848112502
O         2.23134305569559   -8.16119999980485    2.23936570454439
C         1.45220659011121   -6.02156338195836    1.63991318700529
C         2.71581257817725   -5.67426548036878    1.16840627615978
C         2.92161203930047   -4.41860672543622    0.61927166248720
C         1.88549185372089   -3.50557291820658    0.54549737213229
C         0.61510637878063   -3.85785169626391    1.00480367371561
N        -0.43332654774833   -2.93025367585830    0.90185057925130
C        -1.56118767753952   -3.28071836904310    0.37280418216476
C        -2.56510282575143   -2.26084521249458    0.27286468346774
C        -3.81218359517550   -2.42512031507664   -0.32955869997948
C        -4.66799828389454   -1.34105325610488   -0.40358238569655
C        -4.24840323522140   -0.12018581245272    0.11350265145782
C        -2.99607875768955   -0.02689684839537    0.69730419349402
N        -2.17681999201453   -1.06952737584720    0.79224911135003
C         0.39847756060903   -5.11809934331821    1.55019807217279
H         2.03006865016489   -9.02928985924376    2.63258261551419
H         3.52313200866198   -6.38520098492349    1.23564011555572
H         3.89725827019056   -4.15104524648647    0.24512712738751
H         2.02908456154056   -2.53122425991433    0.10297776597593
H        -1.72472743854955   -4.27740681921902   -0.02022839566534
H        -4.08508603699353   -3.38648515984556   -0.73372592814020
H        -5.63940197446065   -1.43892962994282   -0.86212174079885
H        -4.88085755718411    0.75114414909705    0.06695789768631
H        -2.63693452194665    0.90996675081032    1.09688943317763
H        -0.56953755505704   -5.40525969490618    1.93218198131863
Cl        0.32978152203528   -0.49530088874764   -0.73043090709151
