78
 energy: -124.758912010085 gnorm: 0.000384262946 xtb: 6.4.1 (afa7bdf)
Ir        0.29458881204750   -0.84751247434107    1.61585864339087
C        -1.28499165323492    0.61331852254279    4.20716495172291
C        -0.00792742104946    0.15435937662480    3.59230476645184
C         0.61276680545458   -1.10906607254311    3.84197648233801
C         1.88104936980915   -1.12366940818784    3.15696656098857
C         2.94228482513593   -2.16436710815355    3.29137115289817
C         2.07790104623541    0.16794640999177    2.56177056463975
C         0.88941787030485    0.94306649287789    2.78020112102343
C         0.74085049149498    2.36383247364183    2.43849236235564
C         0.43375547546255    3.30124784452574    3.42361462152267
C         0.34976609530575    4.64274578927192    3.10807221023130
C         0.56257355898494    5.08848551069972    1.80403568015066
C         0.49006274490942    6.52004205915266    1.47643936190609
C         1.40796242045511    7.09188267032328    0.59702187804465
C         1.34837455520998    8.43980012198540    0.29478390266152
C         0.36742609017948    9.23816683069164    0.86043318921654
C        -0.55220939985241    8.67967665060178    1.73321600349776
C        -0.48970045005076    7.33344542090828    2.04260316035451
C         0.85742136359167    4.14480669189586    0.82037705116315
C         0.94991503696002    2.80320666006048    1.13092140770718
C         3.34286412308396    0.65165368795180    1.95018365305609
C         0.11977266659514   -2.10800754420379    4.83151882034498
H        -1.10639467052961    0.87144959897306    5.25179904978855
H        -2.03401857316913   -0.17490338653258    4.18830135044098
H        -1.67397486341165    1.49088541045413    3.69827178862436
H         3.50868212136587   -1.98728771410005    4.20606858031935
H         3.62487139248025   -2.12185215609461    2.44748309946194
H         2.51116976385915   -3.16054100508255    3.33765242444303
H         0.29701657501961    2.98204270271607    4.44483279664993
H         0.14153446661396    5.36001186528195    3.88749725421190
H         2.18737704889201    6.48189087227456    0.16417971543673
H         2.07104400431422    8.87065067802973   -0.38319474937205
H         0.32014220459536   10.29075988315572    0.62265628395416
H        -1.32180742939676    9.29698841623575    2.17349781632983
H        -1.22057138677250    6.90594665529129    2.71316725903041
H         1.00274188772575    4.46589363365620   -0.19997512302980
H         1.17079033697629    2.08166377283530    0.35768245042560
H         3.49869621464938    0.19963449002369    0.97072033112983
H         3.31552857801906    1.73102374395774    1.82476608658684
H         4.18410687428580    0.37909479209550    2.58515103506807
H        -0.92048261126147   -2.37070107128130    4.65325126032344
H         0.73038995604772   -3.00474588878693    4.82228036174486
H         0.17948274761285   -1.66526405375458    5.82661355824425
C         2.11165176500733   -2.67574190785766   -3.44166369768143
O         2.15190942093620   -3.35687618281170   -2.19080550467854
C         1.00812722159022   -3.47073941726943   -1.53302927939903
O        -0.06320840214573   -3.09308154960286   -1.96004309029065
C         1.19178838110391   -4.18905964889750   -0.23681907735970
C         2.07636395293671   -5.25028097113679   -0.17881237785462
C         2.25527451324851   -5.98675508714905    0.99790924888629
O         3.12139604980499   -7.01199277392513    0.92402420942064
C         3.35735642107728   -7.80379537175646    2.07623666096228
C         1.53488267783750   -5.61903991475952    2.13641337942323
C         0.68569601088664   -4.52955944058684    2.09624977270788
C         0.49503454100842   -3.80651431370093    0.92439701788599
N        -0.33588032034100   -2.67442988584815    0.90851078430707
C        -1.39897908444007   -2.67255895341876    0.17148566020733
C        -2.07286817024111   -1.41876396399860   -0.00251417455874
C        -3.20302396978262   -1.24125780197146   -0.80418334381164
C        -3.72445289285658    0.02510010874317   -0.96595595284526
C        -3.08587057165178    1.08347575604854   -0.31995918345627
Br       -3.73174450395291    2.86057063226483   -0.50034268242635
C        -1.97004027620869    0.84393168870200    0.46924582935717
N        -1.47938404987051   -0.37818736638356    0.63197631180244
H         3.10715829671705   -2.76768054692455   -3.86577336295384
H         1.36305809600480   -3.12570765802374   -4.09605276696900
H         1.85881413617793   -1.62636277740833   -3.27832630564413
H         2.63199690799163   -5.53869092912847   -1.05564499113753
H         3.77674088555041   -7.20461067198442    2.88795167194140
H         2.44232656287796   -8.29974926547602    2.40944680508282
H         4.08287402524188   -8.55350508659469    1.76767289306805
H         1.63017790284425   -6.17483108584584    3.05494321708170
H         0.12403723204643   -4.25262276467623    2.97343675936494
H        -1.76438893358206   -3.56831536545944   -0.31400567413934
H        -3.64227874947660   -2.09148162702341   -1.30020450688940
H        -4.59465555009352    0.20010120679676   -1.57857713938586
H        -1.46260407430568    1.65981702428331    0.96550518132411
Cl        1.32377048339042   -0.63829893282379   -0.51034646684223
