76
 energy: -119.188523297470 gnorm: 0.000517222648 xtb: 6.4.1 (afa7bdf)
Ir        0.01192041195951   -0.65890809745752    1.70746027949109
C        -1.40481322582126    1.05490918719697    4.27588250442098
C        -0.17423738455351    0.52878241384559    3.62103061589229
C         0.44138634955471   -0.73394905602633    3.89460380240073
C         1.70951545762996   -0.77261012575483    3.20324206699692
C         2.78251519105924   -1.77932219354833    3.44139363293410
C         1.83424474574505    0.42195302692748    2.44660456616979
C         0.64394301682273    1.22464852700709    2.67451373624893
C         0.50460478216242    2.64029665560079    2.28982171783249
C         0.50356779810921    3.61769270301465    3.28326668171094
C         0.44421234787979    4.95531900372144    2.94669449938961
C         0.37825527909426    5.35711855173419    1.61315009875519
C         0.35263361615766    6.78407983622022    1.25651335145173
C         1.05869801695342    7.24723727150151    0.14714241854791
C         1.04853949408211    8.58886995020989   -0.18662799917971
C         0.32837982479311    9.49225967111486    0.57807622971174
C        -0.37766378090169    9.04412354414241    1.68234511527437
C        -0.36330716047618    7.70347679764586    2.02116980522721
C         0.35625278374777    4.37249807813622    0.62589185047194
C         0.42051738562009    3.03363713750568    0.95726731267389
C         3.04195967489471    0.88679339391582    1.71255699290086
C        -0.01157909019761   -1.70764155068131    4.92809217592592
H        -1.18696249893328    1.26030656081441    5.32421927926811
H        -2.21565734862896    0.33055251187963    4.24422462618382
H        -1.72768739942074    1.97886244908353    3.80423477087200
H         3.34644901023681   -1.48580960187184    4.32756229110858
H         3.47146880284096   -1.82951360913483    2.60372812034741
H         2.37001040415667   -2.76962353953925    3.61419622381115
H         0.58008406611563    3.32808218751469    4.32046389803653
H         0.47825714969855    5.70106991325977    3.72669829166471
H         1.63826130742316    6.55524968559964   -0.44613193703942
H         1.60636347130435    8.93278140564495   -1.04562561406779
H         0.31880491982566   10.53992544222755    0.31527803636841
H        -0.94221199368251    9.74381041603721    2.28164912889468
H        -0.92826607114853    7.36613696348304    2.87746967490755
H         0.27591103530049    4.65894802382485   -0.41195072486944
H         0.39382577254301    2.28241745628236    0.18227118183172
H         3.61393554396924    0.05066698499527    1.31962355352004
H         2.76473871055562    1.54295597252894    0.89217793272924
H         3.67898140442729    1.44736203328820    2.39812595425493
H        -1.09366483572944   -1.70153062489482    5.02430730846782
H         0.32171743659110   -2.71396668935933    4.68971628452119
H         0.41665643774364   -1.43073342654683    5.89224357875079
C        -6.71465207401010   -0.05195629534273   -0.40832654387854
O        -5.78525197001253   -1.12617496456956   -0.35308817570954
C        -4.56488061159108   -0.91711205654530    0.12182907744163
C        -4.06374598999950    0.30810554612034    0.59116349333161
C        -2.77249353422312    0.37374020812332    1.07014995078416
N        -1.96258284907650   -0.67953327897971    1.12871741808216
C        -2.41802912434591   -1.86887394645165    0.65615879022920
C        -1.43643283082703   -2.91727007533843    0.69544444147006
N        -0.26430148515785   -2.60559165231702    1.14262045888977
C         0.75578278742075   -3.56629306787426    1.17938796757519
C         2.00379693042189   -3.24346444473308    0.65724223832441
C         3.00744671619949   -4.19629046208702    0.66060266427154
C         2.76433202744522   -5.43990648871524    1.20319714775007
F         3.75306419689598   -6.35803866349914    1.21278743098469
C         1.51834138074527   -5.79055782343672    1.75166588466511
O         1.40365642291997   -7.03157204406288    2.25904973404152
C         0.15493464195590   -7.44379442403264    2.78656795302450
C         0.51270209738288   -4.83010556540313    1.72171032980522
C        -3.69920188424399   -2.02014921628692    0.15524779491532
H        -6.91791000343531    0.34080385448186    0.58997941424179
H        -6.35417224637603    0.74573017384977   -1.06070649877391
H        -7.62383684049664   -0.47980936379750   -0.82441992645616
H        -4.66248798753903    1.20293261455034    0.58281087353291
H        -2.37090234832142    1.31314994816115    1.42046053157955
H        -1.66242892008967   -3.90560380311048    0.31245854224813
H         2.15995048367212   -2.27232208190336    0.21594825536193
H         3.98011562507028   -3.98852148189292    0.24527920077595
H         0.30840555906014   -8.46864253166788    3.11667134560048
H        -0.13664549282255   -6.82658965646873    3.63975645736600
H        -0.62295062621818   -7.42072901368828    2.01954097538041
H        -0.45716773459346   -5.04186434386052    2.14139561871498
H        -4.03906629253314   -2.97179099525089   -0.21813885395493
Cl        0.43423711884548   -0.24298984603418   -0.60729830661545
