77
 energy: -121.367552052836 gnorm: 0.000851763185 xtb: 6.4.1 (afa7bdf)
Ir       -0.28955452327400   -0.98015032646486    1.60766185013442
C        -1.80131194983570    0.88674785086308    4.07374967022908
C        -0.57872125769709    0.26924215425438    3.48681274086231
C        -0.13119612616578   -1.05185951461071    3.85364365636233
C        -0.80828441052278   -1.91519544661068    4.86240557519710
C         1.19619805495454   -1.23507573497678    3.32879688142796
C         2.16917339416437   -2.29691528781006    3.71308718622757
C         1.51580307558217   -0.08452114673861    2.55311117208621
C         2.84546836143954    0.19795468708533    1.94481961144605
C         0.40899626171566    0.85849337993206    2.64383596313295
C         0.52663398712537    2.28294432679254    2.17301280681031
C        -0.63329961221982    2.78555442268881    1.30705280946158
C        -0.33426411950800    4.19967540906424    0.81574562940149
C        -0.11774994716984    5.14242080509732    1.99718936326360
C         1.01683863585499    4.63691685910934    2.88441765190564
C         0.72798041897665    3.22074686449343    3.37478411801309
H        -2.65493898035152    0.21444364243447    4.01256854604583
H        -2.05596865074690    1.82927111473763    3.60224440453907
H        -1.61316396356060    1.07741732572082    5.13142027639837
H        -0.46331088653057   -2.94269515112254    4.80272963387416
H        -0.58263509957681   -1.53753555368406    5.86050963558139
H        -1.88731482491593   -1.89934552780463    4.73497046323430
H         1.69601875767964   -3.07520559429167    4.30140067859152
H         2.63527791209409   -2.74942345233941    2.84097892955833
H         2.95524214494308   -1.84112918537803    4.31556542264889
H         3.44418937969958   -0.70593595593805    1.88828103219888
H         2.73831505217487    0.60388136513389    0.94103959396123
H         3.37325597858638    0.93179952154551    2.55446528200591
H         1.42540435848805    2.34358419949286    1.55197242308187
H        -1.56271395686034    2.81331881253508    1.87647246970335
H        -0.76477311529964    2.11759251359322    0.45365710552234
H        -1.16400550523567    4.55667745432459    0.20242797855422
H         0.56010939632254    4.18870615616845    0.18915313954298
H        -1.03765239757980    5.20874798025102    2.58312501060294
H         0.11448341509180    6.14494386996467    1.63281447302871
H         1.14325151098254    5.30188717911074    3.74107964739615
H         1.94954498983113    4.64559710273546    2.31594583977129
H        -0.16878488759143    3.23041330025616    3.99453420434617
H         1.55759071355635    2.86343063900262    3.98723799750642
C         5.58121576292458   -8.72241859386257    0.70555190338115
O         5.26326207779578   -7.93034347643467   -0.42233706356944
C         4.28366416016878   -7.00709378978616   -0.31986908785448
C         4.03606321963931   -6.26740765026122   -1.50521803847158
C         3.07369499882425   -5.30687048708682   -1.53983404256056
C         2.29163180606725   -5.02433566259018   -0.39399451007263
C         1.27717399848882   -4.05734437829152   -0.40911999047618
C         0.55108347955765   -3.78306129271478    0.73364068508705
N        -0.45683505654093   -2.81417320036310    0.71961919090168
C        -1.40937869962145   -2.91455789491361   -0.16029316919403
C        -2.38669350979411   -1.87609324230320   -0.18317796976282
C        -3.47581569925761   -1.82821297785852   -1.06058819328698
C        -4.35458830231953   -0.76977535340304   -0.99130878060256
C        -4.11673154404142    0.21727778573621   -0.02815702754439
C        -5.01998861116406    1.41505177533307    0.09056879021481
F        -4.57528101033048    2.45291430641294   -0.64271702215294
F        -6.26823073118154    1.16468234691209   -0.32059412341138
F        -5.10679366983498    1.86292397802974    1.35354944051419
C        -3.01806990914877    0.11604877817555    0.80835271843145
N        -2.16732222386704   -0.90235977636967    0.74278141421440
C         0.80298177209894   -4.50410162425197    1.92110196706866
C         1.75883623661558   -5.47717934159984    1.94203459294714
C         2.53932068800380   -5.76100582598253    0.79750673421738
C         3.54141326693995   -6.74734308545088    0.81210785771823
H         6.37757604609082   -9.38806003127744    0.37937935793838
H         5.93841180468162   -8.10487412368749    1.53413468671787
H         4.72055811934702   -9.31481067290813    1.02794347361522
H         4.63784387084808   -6.49670534753055   -2.37020365372792
H         2.89197467298404   -4.74883621657700   -2.44560915506676
H         1.09738679161112   -3.48617424854192   -1.30745326728010
H        -1.46561250708337   -3.75700225211773   -0.83908172070565
H        -3.60928920138938   -2.61303786836030   -1.78710741849243
H        -5.20516091591575   -0.69709828691922   -1.65078615984321
H        -2.82735152328160    0.87393886835845    1.55274979987540
H         0.18878118158451   -4.30328743261743    2.78321447702327
H         1.93123175773033   -6.04955601429521    2.84063012258581
H         3.70880650868663   -7.29059932480443    1.72841433266418
Cl        0.42982030940847   -0.29347542446741   -0.55551602472495
