75
 energy: -109.804487085525 gnorm: 0.000797024811 xtb: 6.4.1 (afa7bdf)
Ir       -0.31184541367446   -0.68403915591862    1.76094866177856
C        -2.26683243279094    1.65623412496570    3.59424268594292
C        -1.07371158645276    0.78635447733887    3.40311367659094
C        -1.05578033083544   -0.59005829828033    3.86278941054423
C        -2.21281016194381   -1.27903512543017    4.50210373234851
C         0.30239300539095   -1.02878150403037    3.90698099140668
C         0.78915192386684   -2.23100033688595    4.63963566519483
C         1.10491035177276   -0.00166288562362    3.30573214256118
C         2.59649995345251    0.06055023087829    3.31556597561016
C         0.24574658010301    1.14774881107980    3.04073073122779
C         0.81239093348083    2.50624664012925    2.73334321493006
C         0.18227940318722    3.24269291335599    1.54874772356703
C         0.92276699583606    4.55538621973297    1.30841583248866
C         0.87106206917779    5.43681231809117    2.55374043350230
C         1.46923329800460    4.70356213152071    3.75113365408611
C         0.73948110274892    3.38552758655312    3.99414781462949
H        -3.17565770400356    1.16668444023764    3.25416567209231
H        -2.16868443881574    2.60603370850234    3.08369185983655
H        -2.37418623578722    1.84289718295521    4.66415809134206
H        -2.08653839632951   -2.35764670560919    4.49155688669757
H        -2.29100830692056   -0.95607631115672    5.54080060993208
H        -3.14462516778611   -1.02863797263518    4.00285297831607
H         0.86002098442035   -1.97062147856991    5.69717143155755
H         0.09547691513423   -3.06294953787933    4.55288479451087
H         1.77506571736854   -2.53924321354608    4.30642484065756
H         3.02788293345144   -0.88749847646257    3.61888407497432
H         2.98437291643349    0.32870107902150    2.33538174749515
H         2.91713318522017    0.82195426485941    4.02664520190429
H         1.86856400428564    2.36877228973531    2.48432614855450
H        -0.86797005880732    3.46075609633654    1.74176410989420
H         0.24553677178519    2.61143621478636    0.66247437864101
H         0.47586543648133    5.08164096216013    0.46265987411606
H         1.96426777625220    4.34733433954306    1.05286207364702
H        -0.16690858163774    5.70096503377227    2.76990085806521
H         1.41856454915034    6.36468917339534    2.37596687650610
H         1.39997863543216    5.32971160748372    4.64298604471789
H         2.52760285368290    4.50896654681122    3.56288376950539
H        -0.30198992515492    3.59097162679899    4.24070731240857
H         1.18969776652610    2.86235716424551    4.83989287343827
C         5.47198097883619   -3.42201630543399   -2.22221546211356
O         4.79132212688559   -3.65623091499983   -0.98894837387913
C         3.47733707066296   -3.85602903243165   -1.02720719921020
O         2.81474036290497   -3.88359975563866   -2.03570152082448
C         2.92530634918308   -4.03366567173109    0.36969372323711
C         2.47262716606038   -2.72061149906512    1.04852806318108
C         1.12295185634682   -3.38292578858832    1.38659907671144
N        -0.05154832915618   -2.59220830559565    1.12311176634575
C        -1.02161231747271   -3.11861977301493    0.45642764840154
C        -2.11439992623890   -2.28466599493935    0.05593853642830
C        -3.13144518999562   -2.73001295930968   -0.78974836796037
C        -4.09119461777818   -1.82762193456664   -1.19525362444777
C        -3.97774182183814   -0.48918175993320   -0.80700085715682
C        -5.03156482887124    0.37672188968048   -1.16920813246390
N        -5.94716809053451    1.00762987801986   -1.45231827325852
C        -2.88197741292465   -0.09094847354319   -0.00880348436254
S        -2.51757520167905    1.54432640680479    0.43930740742571
C        -3.16641826543998    2.58384508299198   -0.90058082536353
N        -2.02378933356788   -1.00310279530559    0.47046177872116
C         1.47952348675259   -4.54560023027767    0.43688263777905
H         6.48522172673638   -3.79475971549065   -2.09345585529112
H         4.96544878473616   -3.94422540042882   -3.03584541658648
H         5.48570121107981   -2.35112032662970   -2.43121436461308
H         3.64207337759985   -4.59251568385351    0.96850205443197
H         2.35072656966906   -1.90213700604737    0.34352643387451
H         3.08081073001316   -2.39616735329488    1.88454525810542
H         1.08053272786426   -3.71235341956344    2.42719909481932
H        -1.00441480876885   -4.15384692932136    0.13884720668131
H        -3.15947111361382   -3.75793177488886   -1.10919632570508
H        -4.92496377665812   -2.13176168601735   -1.80911547006033
H        -3.02957758996391    2.08230428968294   -1.85307486691199
H        -4.20832308164990    2.83410956957515   -0.73480682605416
H        -2.55788109499324    3.48349292461018   -0.87042477194523
H         1.02151253242214   -4.45414109356282   -0.54653218670223
H         1.33856789929911   -5.55003388452281    0.82516308265678
Cl        0.73951252279083    0.06387324428841   -0.23400741923016
