89
 energy: -126.533844591959 gnorm: 0.000326401341 xtb: 6.4.1 (afa7bdf)
Ir       -0.32731421795455    0.07645155974508    1.50605151637203
C        -1.69080047507445    2.71120911759678    3.47484360283094
C        -0.81346042669956    1.52884551536031    3.23776810519462
C        -1.24985298874682    0.17844676625427    3.53816428542660
C        -2.62634408442981   -0.19702286856288    3.96763110851691
C        -0.10475683809440   -0.66145705348370    3.61425788971235
C        -0.10671285146148   -2.04953251141408    4.16108305021533
C         1.03405957766198    0.12860100520762    3.22440090155282
C         2.46723675284493   -0.28028623390893    3.33973580803482
C         0.59312172243182    1.50446236784190    3.06415639765511
C         1.56562338280823    2.64517030054530    2.97719241766917
C         1.27782998181321    3.70443486337921    1.91049593332506
C         2.40431876941125    4.73416981221109    1.89637849007814
C         2.53754755891282    5.40211782344959    3.26262180253355
C         2.78448350296710    4.35735312373119    4.34747364661838
C         1.66705383405947    3.31819440563463    4.35790335177238
H        -2.71995480220119    2.49970129882650    3.20075231757090
H        -1.36184142575830    3.58653441570490    2.92723825296299
H        -1.67068797296134    2.94248167694569    4.54121904425256
H        -2.79622790832199   -1.26374792479841    3.85250971629531
H        -2.75226439623592    0.05654333826150    5.02110040346061
H        -3.37813034682664    0.34592097926490    3.40080634376601
H        -0.88417701347555   -2.65874952817251    3.70613600003208
H         0.85095257729196   -2.54183632834487    4.02551304030656
H        -0.30844716459109   -1.99730331182938    5.23148086003534
H         2.56715974754259   -1.35080220156694    3.49052156402126
H         3.02995001065364   -0.00141174633489    2.45155612266515
H         2.91758056682376    0.22287710795821    4.19543880280922
H         2.54731740396048    2.22297211916099    2.74146442362806
H         0.34024389012221    4.21968909931538    2.11594424883081
H         1.20012911697321    3.22613490852541    0.93451469397017
H         2.20089403309395    5.48904770181353    1.13441870290129
H         3.34678077334190    4.24693417682229    1.63542981697876
H         1.62035012818402    5.95131721615264    3.48863211287908
H         3.35813334781512    6.12242045317530    3.24658932516369
H         2.84212622641436    4.84227569837620    5.32436671731594
H         3.74229483255584    3.86514138005074    4.16330147637752
H         0.72163053069749    3.80699824823904    4.59492141066468
H         1.86361568878764    2.56862300682417    5.12728291126244
C        -4.51675049090396    8.09027572022933    2.18536269606830
O        -4.36835044817173    6.70296959900054    1.89754223210088
C        -3.24378661186389    6.33072728050660    1.28074035242500
O        -2.36222077393341    7.10403069957102    0.97595469951691
C        -3.19621993494740    4.87022811958332    1.01434482256964
C        -4.26071844707734    4.03007728047885    1.33773422643461
C        -4.19156018864325    2.68562199213470    1.03248975146344
C        -3.05401409138105    2.15315889168531    0.42046929251920
C        -3.06707978481883    0.76190615134821   -0.06062365794848
C        -4.15867826174074    0.38824931062623   -0.85297674835696
C        -4.19763778638919   -0.85725362863015   -1.45103852245210
C        -3.12435190794160   -1.70811830355274   -1.25385086888582
C        -2.08584576747485   -1.29492251513105   -0.42462777504169
C        -0.94674881444086   -2.13462513622901   -0.17215906688623
N        -0.02740536695912   -1.72400139937980    0.62489239216748
C         1.14690241260266   -2.54597349441102    0.79619523048477
C         2.29696813590168   -2.08610789687467   -0.11428288714009
C         1.99282378069380   -2.30217432927416   -1.59900365437295
C         3.16939604892075   -1.88454548573471   -2.43911715203246
C         4.05121130801934   -2.82354615800515   -2.95680425626222
C         5.13995518012270   -2.42537892606199   -3.71429127901629
C         5.36182625106684   -1.08065818862668   -3.95795942705342
C         4.48869664721271   -0.13661153961533   -3.44198075927286
C         3.40058283988668   -0.53676466198107   -2.68782391995198
N        -2.06384481506221   -0.08558226340608    0.18744543998789
C        -1.98230540598458    2.99035958764859    0.11958794717885
C        -2.05923884857812    4.33959460456894    0.40890710147772
H        -4.59327561480727    8.66107468625110    1.25814985495036
H        -5.42979904097598    8.17999040070327    2.76715814689172
H        -3.65699893031607    8.45318016158141    2.75146364628685
H        -5.13823447702969    4.43962735767052    1.81103189713874
H        -5.02286231231488    2.04037457128054    1.27492915143943
H        -4.95295637071267    1.10020814173125   -1.00825057741332
H        -5.03428939348724   -1.14877092416734   -2.06595467216670
H        -3.08020025891887   -2.67720496284455   -1.72299885168923
H        -0.88092762078096   -3.09780480300816   -0.66825905689780
H         0.90324755908558   -3.58788114047556    0.56580110092023
H         1.47564851407303   -2.47476487400011    1.83086177273966
H         3.18716434238305   -2.65232103084395    0.16097798424993
H         2.49489078859038   -1.02867990630381    0.05573174585842
H         1.76815479745485   -3.35446141069091   -1.78313364140080
H         1.12838676857713   -1.69674060404482   -1.87899021065150
H         3.88617185844933   -3.87619409693222   -2.77399229616259
H         5.81658250151224   -3.16585880501938   -4.11662299015026
H         6.21110929361338   -0.76897411379940   -4.54905733971564
H         4.65686170603446    0.91405965278280   -3.63091583403300
H         2.71992255415080    0.20106933527697   -2.28925032564224
H        -1.11178303875807    2.59263931827051   -0.37586254337902
H        -1.24814668427941    5.00565396812934    0.15681057021459
Cl        0.79385314944161    0.97430698989652   -0.37470735941837
