72
 energy: -119.759482236653 gnorm: 0.000710159431 xtb: 6.4.1 (afa7bdf)
Ir        0.11637128230886   -0.55191239713122    1.60459207243867
C        -1.44519872843240    0.75866072037395    4.27759314926259
C        -0.18920324010260    0.61677991101923    3.49098015198121
C         0.83085248302606   -0.35729477962886    3.72355399042688
C         0.84129254273536   -1.37453097446416    4.81085400736156
C         1.93014303346799   -0.07189301879924    2.83731661145579
C         3.29084401967987   -0.67458212102609    2.91900225656496
C         1.59738384326531    1.09369042203366    2.07490874347727
C         2.53026027516806    1.82656217266506    1.17949895331633
C         0.26614736947404    1.49696153631099    2.44133172302766
C        -0.36714967380669    2.75170084951861    2.01059850439906
C        -0.79854967000502    3.67810665388148    2.95835836354802
C        -1.33561286335335    4.87706356936993    2.52874369343602
F        -1.74233272840918    5.77034288533203    3.45294430437285
C        -1.46829743657771    5.19910778596538    1.18965930419178
C        -1.03514287686524    4.25687952710187    0.27279425762097
F        -1.15154737628263    4.53408932916831   -1.04145455938832
C        -0.49040833074392    3.04491855494995    0.65246984223551
H        -2.16341187299950    1.39060252363852    3.76275248325217
H        -1.21308470904481    1.21289259599717    5.24172902473591
H        -1.89849154002915   -0.21010131702943    4.47447802109096
H         1.37066239466970   -2.27231547934930    4.49981321631412
H         1.35922230584765   -0.96281779696491    5.67761771459578
H        -0.16789187637958   -1.63867949765669    5.11264883300455
H         3.88874645976810   -0.09647937937019    3.62481188938531
H         3.24911251841684   -1.70133678320924    3.26943784353997
H         3.78621617329188   -0.64940925935479    1.95305193832552
H         2.66385378521567    1.29451653682867    0.23843111755596
H         2.14729503229877    2.81805376197190    0.95492716612087
H         3.50422444723983    1.91244251007012    1.65726382205229
H        -0.69402651489972    3.49258357283311    4.01427567094019
H        -1.88682071255741    6.14047434697547    0.87575957778997
H        -0.17783179631087    2.33634236290085   -0.09928475273334
C         2.81541508990865  -10.61088825842288    6.25064416683631
O         2.10663823268568   -9.40349684329049    6.43436176503354
C         2.19374635655559   -8.44022046587341    5.48009063542737
C         1.49170994134524   -7.25941704150622    5.73855658443411
C         1.51865855773334   -6.21742332748282    4.83984668732671
C         2.25183468411077   -6.31026912455844    3.65500077583528
C         2.30266135380538   -5.19224633610889    2.70286569392557
C         3.48446802689247   -4.88356143506576    2.02485492380280
C         3.53720668492021   -3.82364677387246    1.13618898561132
C         2.42300589325895   -3.03520791572754    0.91548342753245
C         1.23508279600955   -3.33979414820971    1.57822357471075
N         0.10010894358238   -2.54873426949317    1.34333498639323
C        -1.01463099957814   -3.09594434291896    0.97502148865364
C        -2.12429472851943   -2.21636742829996    0.75742120427447
C        -3.37000110668993   -2.60918698874259    0.26065872615051
C        -4.34659957913372   -1.65656771762456    0.05667406168662
C        -4.04283476782224   -0.32775062855675    0.35246228922985
Br       -5.33800787637051    1.04437103419631    0.10578751450252
C        -2.78646880424842    0.00224339612665    0.84381017570354
N        -1.85516963836657   -0.91852232235178    1.04888388065377
C         1.17297118307183   -4.41540871428190    2.46074342060658
C         2.94381892500737   -7.49120254631240    3.40295674036597
C         2.91708614384921   -8.54708360010304    4.29543459764968
H         2.46560656056715  -11.14875085776688    5.36457527417232
H         3.89182710088266  -10.43299115822274    6.17230441972461
H         2.61181832919729  -11.20729640985619    7.13792932123575
H         0.93707539003704   -7.18744121611836    6.66053891855245
H         0.98477046602722   -5.30979731932852    5.07527332629671
H         4.37113759180721   -5.46821583971370    2.21268290704041
H         4.45705682112840   -3.60481544337923    0.61689605839318
H         2.44151902981151   -2.21332552302399    0.21753562511562
H        -1.09644813339861   -4.16244192438835    0.80210740109551
H        -3.55352033039709   -3.64726869651161    0.03324036550741
H        -5.31959584994455   -1.92400280277002   -0.32395949733562
H        -2.53477613961564    1.02876671175456    1.06772834753987
H         0.24477837982126   -4.63574381299335    2.96497797563384
H         3.49632210159759   -7.60443744888190    2.48239145927547
H         3.46278029495090   -9.44642605395431    4.05830319282104
Cl        0.49382505674514   -0.33283973096207   -0.73027433711494
