85
 energy: -112.796580253978 gnorm: 0.000501373803 xtb: 6.4.1 (afa7bdf)
Ir       -0.65847497190737   -0.91240768963596    1.38854426238435
C        -2.38229369205475    1.19098180941004    3.58726414438923
C        -1.19590958242587    0.35918785564761    3.23072724491488
C        -1.12893493693736   -1.04892578371475    3.56249199780439
C        -2.20794104374475   -1.80518918940893    4.26176516938310
C         0.22606491115944   -1.47754546178049    3.41258099774997
C         0.77840812616140   -2.74674187548756    3.96389876882335
C         0.95597842967026   -0.40088540254236    2.81974788298848
C         2.43391803478817   -0.35503835825224    2.60815023590007
C         0.08117122854827    0.76488371141740    2.76746466486113
C         0.62270966898316    2.15359744298628    2.55875400869951
C        -0.13251007387373    3.04554183588561    1.56910529438505
C         0.59638694920850    4.37872124886080    1.41879557392987
C         0.70822847325434    5.08476693266763    2.76758059174812
C         1.43467920782634    4.19693071273292    3.77414515936175
C         0.72098368160079    2.85642168910818    3.92465436650824
H        -3.30219243775812    0.74707854239779    3.21169906169759
H        -2.30349870149889    2.20223689583348    3.20678387634442
H        -2.45500878121359    1.23474756331124    4.67488767117350
H        -2.07543791677515   -2.87720004151511    4.14648173813940
H        -2.17926224298549   -1.57233999430861    5.32692948719577
H        -3.18886992347315   -1.52916770142259    3.88435070501011
H         0.86443140854090   -2.63391066207288    5.04601449536264
H         0.12101854851491   -3.59234172987207    3.77476390543934
H         1.76959012762435   -2.96094858910969    3.57499600442376
H         2.85861876106125   -1.35332071951762    2.58221965656989
H         2.67500547775447    0.14186795103183    1.67118439959470
H         2.90564862014619    0.19770764301984    3.42088115567980
H         1.63844813708600    2.05092199928870    2.16607411851651
H        -1.14589382187436    3.24499150122708    1.91829708939313
H        -0.18342509065786    2.54714614598149    0.60016199798223
H         0.06082833445392    5.01329172490667    0.70974857022003
H         1.59633424785688    4.20501313576365    1.01488130535666
H        -0.29141727182931    5.31769352603481    3.14239742952744
H         1.24543625429203    6.02793592938667    2.64970662338580
H         1.48317577962550    4.69597635555283    4.74432564485712
H         2.45953675062949    4.03077853902300    3.43390618781865
H        -0.27875221608994    3.02166889465880    4.32786460546322
H         1.26660937001266    2.22378584857582    4.62740827771915
C        -6.42940480620814    4.33190614985156    1.37732417944895
C        -6.26746414782072    4.07088429367149   -0.11695286541911
O        -6.41165187780453    2.69429393614591   -0.44605619024981
C        -5.42239664631399    1.81720929965744   -0.21632569939642
C        -4.13605387151653    2.14603793004172    0.27231999090265
C        -3.19622539342878    1.17565424994802    0.47602097561410
C        -3.46401933388229   -0.17655918616348    0.19601613130029
N        -2.52235083348856   -1.12148866696933    0.40744944053158
C        -2.74691835406152   -2.37036772761573   -0.01914213636153
C        -1.61498265508732   -3.24114308451737    0.07777012880394
N        -0.51252082941177   -2.76476665283769    0.54553440110162
C         0.66551835949973   -3.59550025863492    0.53745268585824
C         1.81867465706044   -3.01817050618467   -0.31330158306427
C         3.15876079017654   -3.48181716122457    0.27945592528357
C         4.36979460195446   -2.77093698207782   -0.31645070792433
C         1.71572738464261   -3.44124231821180   -1.78370745317354
C         0.44907116013792   -2.97664811999539   -2.49633591639688
C        -3.97900474248368   -2.77293095134646   -0.57569043607336
C        -4.98181424835100   -1.85818950633234   -0.70860586239356
C        -4.74246758946535   -0.51084836724513   -0.34924659338212
C        -5.69757772542057    0.49334466079681   -0.52354166068243
H        -6.36715499707398    5.39989309854280    1.56514014742095
H        -5.65643524597040    3.82685410389464    1.95105325529487
H        -7.39885604273293    3.97245842854966    1.71289587089131
H        -7.07386718368612    4.55902867416395   -0.66954855551901
H        -5.31194686973309    4.45765601663933   -0.48749354575959
H        -3.87860673544731    3.17245832850745    0.47654145520320
H        -2.20578716312147    1.43544532117372    0.81092476450990
H        -1.68818949555837   -4.26124248031601   -0.28499080135385
H         0.41374292590250   -4.59727172367208    0.17534452350732
H         1.01342058406327   -3.68090853485794    1.56799572454165
H         1.76668201935570   -1.92706524506420   -0.25861557371996
H         3.15662844196251   -3.29575911469895    1.35509213682645
H         3.26416810873905   -4.55905380564870    0.13358716044069
H         4.52883229234862   -3.05237152374562   -1.35344032329278
H         5.26635796446471   -3.03597344783507    0.23965202490362
H         4.24100174878345   -1.69224682318914   -0.26916283437512
H         2.56930929590817   -3.01380851623955   -2.30963134193114
H         1.79901590940645   -4.52910489384570   -1.85397663938761
H        -0.41612712002482   -3.56719238948200   -2.21024715171864
H         0.24797559177045   -1.93276218577262   -2.27117931257446
H         0.57533333859949   -3.07420565394480   -3.57262042960725
H        -4.10461217335665   -3.79878840138323   -0.88100058893641
H        -5.94581265747656   -2.13499292035557   -1.10567619673766
H        -6.66701366046822    0.24682318066720   -0.92599712641901
Cl        0.12127140088875    0.14048624107345   -0.59403576724719
