65
 energy: -104.742308086591 gnorm: 0.000183468744 xtb: 6.4.1 (afa7bdf)
Ir       -0.42265249869419   -0.77079560128988    2.10358632220562
C        -2.36223606749897    0.82247214311499    4.40526766613110
C        -1.01992477291179    0.31559246070851    4.00896573322846
C        -0.49319589602447   -0.97498888022815    4.33777948503772
C        -1.17754064930633   -1.98498321642824    5.19363560078433
C         0.89099576645801   -1.00562743707459    3.93118337033413
C         1.90220989298538   -2.01816205773839    4.34937616334686
C         1.19030102278969    0.22756381260857    3.28385496675191
C         2.54649502013395    0.68071794631205    2.87481672488350
C        -0.00919907713761    1.04598404784566    3.30814021679595
C        -0.04841147500499    2.48268289726789    2.98511120254806
C        -0.34054695530316    3.39709858179952    3.99601930239520
C        -0.32878061737698    4.74774378780602    3.70329808928028
F        -0.60728392089902    5.62528321627501    4.68902945489217
C        -0.04438022554808    5.23481354059842    2.43983584712854
C         0.23723840344715    4.30064827733209    1.45811993932208
F         0.50998291878798    4.73782713080720    0.21154435037059
C         0.24066486236146    2.94033651687933    1.70214248401528
H        -2.57534375597465    1.77584660102405    3.92990109019988
H        -2.38109812166110    0.96509021338197    5.48612272619390
H        -3.14485243179208    0.10876473388896    4.15723995829561
H        -0.83612623781055   -2.99184714266400    4.97149533630225
H        -0.95421716264553   -1.77567570948808    6.24038473131676
H        -2.25477339308365   -1.94181876457371    5.06285409194306
H         2.41387003545843   -1.64529822657721    5.23765960835720
H         1.43804456179551   -2.96559889317867    4.60583398679447
H         2.65283247512042   -2.17409888590184    3.57946229727248
H         3.10185569296541   -0.12131351530472    2.39477175913149
H         2.48931569223961    1.52416752561032    2.19353501311166
H         3.10034452694673    0.98768429419045    3.76304930518062
H        -0.54937086371229    3.07303453841908    5.00231268564248
H        -0.03851375783252    6.29154055642881    2.23125343207682
H         0.45082159524419    2.24848214723591    0.90089665102250
C         4.49100613449264   -2.75683014796938   -0.18262234539378
C         4.22187078855903   -3.83865189393426    0.52454882463278
C         2.89507201650437   -4.22878974306004    1.10625883803550
C         1.77108221382944   -3.23644134010282    0.82621498106171
C         0.46677683175532   -3.66680300049593    1.51166443500220
N        -0.54614970171408   -2.65740958650349    1.33260816681387
C        -1.52847552439710   -2.87521144983761    0.52935897867315
C        -2.47068569732603   -1.81138080547418    0.33333263358965
C        -3.55323074559747   -1.86213345910240   -0.54885226918873
C        -4.34928064748103   -0.74894379626995   -0.68549549787911
Br       -5.83611151464198   -0.72480281072385   -1.86611869638008
C        -4.06603088894220    0.41901840453630    0.05903844799608
O        -4.86975972295225    1.45793964088536   -0.11935161513372
C        -4.64031946821168    2.66571556148075    0.59135748684882
C        -2.97156997438994    0.37344761414517    0.92619113018895
N        -2.20583926473858   -0.70426833226429    1.06075179670885
H         5.48253559707960   -2.56809058175708   -0.55832809662966
H         3.75070059815805   -2.01458568734482   -0.42616593121584
H         5.01318349083645   -4.54902985234907    0.73173375345705
H         2.62811453753657   -5.21134064175253    0.70631588225263
H         3.02285722729399   -4.35359258086191    2.18565524123401
H         2.05069851931725   -2.24490943094695    1.18453916508868
H         1.60172745532644   -3.16347868845420   -0.24835949871725
H         0.12842003141983   -4.61992031980742    1.09483413462257
H         0.64683083519128   -3.78887652969497    2.58111005584377
H        -1.64484410911387   -3.81534304078156    0.00102477491740
H        -3.75103318097051   -2.75551571170090   -1.11883680337792
H        -5.40449724994771    3.35463503402162    0.23847873382001
H        -4.75530762667140    2.51118478995191    1.66603886486719
H        -3.65093238813408    3.06957954448839    0.36763631253414
H        -2.70084186709396    1.23432115485183    1.51733090126404
Cl        0.46789770850798   -0.13391195222079   -0.01422137782763
