76
 energy: -115.496490820127 gnorm: 0.000989695466 xtb: 6.4.1 (afa7bdf)
Ir       -0.69824991125085   -0.46715678585470    1.79555844480841
C        -1.78493848545273    1.49129734041986    4.46565048018967
C        -0.76243802929428    0.60845314206087    3.84145947493109
C        -0.73777826691262   -0.82769188407499    3.99780478197045
C        -1.70809832722008   -1.60149938290836    4.82512810557766
C         0.52498903491925   -1.30113727749977    3.51868167551115
C         1.09513730669414   -2.65455078744354    3.75577999101480
C         1.20006969865798   -0.20458291194372    2.90314082291840
C         2.61182336021375   -0.21582127500389    2.42943187304768
C         0.40949842634193    0.99671566144330    3.14741660984150
C         0.91265673835354    2.36693608430070    2.96474183120465
C         1.01177000736580    3.20265560002830    4.07634561431330
C         1.53492739995870    4.47195796740990    3.91920533433708
F         1.62970208080731    5.27205230332823    5.00269072605626
C         1.96443678432279    4.95542283513272    2.69656329961641
C         1.84879149761765    4.10274678730052    1.61216734381015
F         2.25001480599102    4.54440642675996    0.40198731730799
C         1.33618347388325    2.82461537233817    1.71883559860156
H        -1.66139851139718    2.52191696614668    4.15001525050163
H        -1.67305351764296    1.44166770712745    5.54951216586708
H        -2.79167987186715    1.16010070029314    4.22437875413854
H        -1.72361830774886   -2.64862488189268    4.53637121122137
H        -1.41418763105970   -1.54377943822027    5.87392665994068
H        -2.71085344354473   -1.19426603139679    4.73240001895164
H         1.65272043448368   -2.63198296234133    4.69287984915886
H         0.31689806814883   -3.40739268618688    3.84289527507121
H         1.78055622013280   -2.94420269075305    2.96440003145394
H         2.87218030797675   -1.18389216436981    2.00869589204125
H         2.78101101885779    0.55336552630627    1.68085233205466
H         3.27364559408686   -0.02040286849296    3.27514253521211
H         0.71269349267821    2.86941021642665    5.05649617730453
H         2.36990294891527    5.94795373594162    2.59361378681749
H         1.24228947219214    2.20827079231334    0.83810608901750
C         3.00536690329997   -6.23305553712360    0.37780203958936
C         1.95849071031922   -5.17766950801536    0.52353626021650
C         2.21608225126098   -3.85863670848526    0.15759063712954
C         1.25103378989704   -2.87921525678927    0.28250685627788
C        -0.01747427326623   -3.20767786681716    0.76024206541735
N        -1.00838789859997   -2.22485122782152    0.88237804125865
C        -2.20930232729704   -2.46866493461974    0.48025027663627
C        -3.22160755362485   -1.47017480038110    0.67425322938455
C        -4.55099358293000   -1.74546142888321    0.40357986531341
C        -5.49266723143853   -0.75977622022754    0.68372135395589
C        -5.05880752895151    0.45658122860661    1.13991089865650
C        -3.67556209049113    0.72808769860904    1.31680244483225
N        -3.26426692589853    1.95990169313220    1.68974691773681
C        -2.07295216719838    2.57414420922328    1.13258872557901
C        -2.45301000056717    3.46245219954687   -0.05576001724535
C        -3.45146888147768    4.53544250641339    0.37002046044385
C        -4.66714335559838    3.87678731684770    1.01847703221879
C        -4.19433616653499    2.97488851105261    2.15999619033829
N        -2.78025750319120   -0.27643884753664    1.15662104737559
C        -0.28765430925827   -4.52836143209252    1.12716253850711
C         0.69326768167650   -5.49188614023942    1.01474677657487
H         2.90966441806021   -6.71084637581920   -0.59778449080038
H         2.89335504143135   -7.00236138707324    1.13768197482844
H         4.00325643453704   -5.80702885814062    0.44343374146945
H         3.18846104519954   -3.59603827600397   -0.23145261982901
H         1.45436017965925   -1.86437080280250   -0.01948518297168
H        -2.46140691474541   -3.40159477197016   -0.01207110113599
H        -4.83656011067505   -2.70388220112793    0.00591079549019
H        -6.54332722023015   -0.94050253296943    0.52118146242014
H        -5.77777228570386    1.23715487040026    1.31314829035106
H        -1.37883638057714    1.80804783438373    0.79898611369819
H        -1.59347953915138    3.18148672767166    1.90313076355641
H        -1.54742142033896    3.91941796459665   -0.45547989497356
H        -2.88870814608985    2.84110997218152   -0.84104805813904
H        -3.75746861578756    5.12677442556647   -0.49398094052663
H        -2.97758689662604    5.21219667386753    1.08475096308630
H        -5.34881864428480    4.63352853549453    1.40749840766787
H        -5.20101394033554    3.28844480301105    0.27000644821702
H        -5.02797959116715    2.51482056184062    2.68795062315579
H        -3.64480724391569    3.58769921220795    2.88049211294959
H        -1.25655114209435   -4.78420525819667    1.52851250080750
H         0.47611125968164   -6.50635364451212    1.31314051564585
Cl        0.02298530382834    0.25490593630104   -0.38582041898135
