74
 energy: -117.451869839175 gnorm: 0.000579037094 xtb: 6.4.1 (afa7bdf)
Ir        1.27653395109055   -0.77722032271666    1.98647994304694
C        -1.20907939602003    0.87271769575384    3.53403489237363
C         0.18066759019831    0.34362379614153    3.56311134548566
C         0.58561076766918   -0.90003047385104    4.12582818417933
C         2.01985964161160   -0.97168292584348    4.05685764447281
C         2.88152282306382   -2.02953837753896    4.63455913704242
C         2.51661810544210    0.26105026925687    3.48061573333877
C         1.38011960267948    1.07870873467454    3.16406509559030
C         1.43359273049212    2.46644799322820    2.70697353604712
C         0.77044716021655    3.46480595579537    3.42515029993683
C         0.89508298258494    4.78792771219907    3.05537708084771
C         1.66754493935992    5.15888688545994    1.95337700256582
C         1.82257356146862    6.57024843999364    1.57738203570514
C         3.04993315856708    7.04597323895489    1.11610161464429
C         3.20422617790215    8.37503131961059    0.76822446287944
C         2.13509509852635    9.25093728686097    0.86820898883807
C         0.91066348178303    8.78999749906051    1.32434562215485
C         0.75682586941322    7.46295218575420    1.68016140848280
C         2.30252984375656    4.15291117939581    1.22201405758034
C         2.19561285646493    2.82987983842397    1.59407316843217
C         3.94501768777311    0.66339534695463    3.43600117724824
C        -0.30372185606549   -1.86837458918666    4.82689192646107
H        -1.49064306550028    1.17994619893635    4.54229573035567
H        -1.91860786622858    0.11158189256317    3.21683545803380
H        -1.28720812178903    1.73370496979480    2.87648955256400
H         3.27964689316509   -1.67216617476381    5.58572040969729
H         3.73034325970325   -2.24117352063367    3.98774974974785
H         2.32957853301697   -2.94501117813580    4.82262548497956
H         0.20324730146513    3.20639331802902    4.30479593033799
H         0.41177316934574    5.54988344369044    3.64736905458345
H         3.89553983807199    6.37715818116658    1.05420462371311
H         4.16256972673198    8.73118370230622    0.41970468297022
H         2.25717983499984   10.28840003581814    0.59456526464962
H         0.07400785888615    9.46847459850208    1.40283031387108
H        -0.20615818341999    7.11275611741874    2.02052708810914
H         2.87552564871219    4.41204931623434    0.34522216677406
H         2.67361852870261    2.06137555720605    1.00579578544703
H         4.52407383044077   -0.00235316213882    2.79941577724618
H         4.04595046563974    1.67800522357773    3.06245357937071
H         4.36260004160436    0.60595986650010    4.44074955667148
H        -1.33056577263780   -1.78077485568099    4.48543434357460
H         0.03060436097662   -2.89306138079696    4.69160025547744
H        -0.28332861537994   -1.65058120540269    5.89506488889733
C        -3.19420129131398    5.64528284138846    1.25643662912393
O        -3.11620911182409    4.29431583487365    0.80762719870588
C        -4.08895715317084    3.86267620672287    0.00911915350707
O        -5.02201682009682    4.53928497973929   -0.35346150242290
C        -3.89524526006236    2.43401552627343   -0.38077062461582
C        -4.90752518932250    1.76829726320694   -1.06518176923760
C        -4.70743947823019    0.43080249330511   -1.39922662541062
N        -3.60954946267027   -0.22899519399598   -1.10500451873586
C        -2.62946717937183    0.40547827692867   -0.46131468734592
C        -1.42592652293393   -0.34893513966574   -0.15375646488893
N        -1.22098343118746   -1.52460042884336   -0.55634414303108
C        -0.17360892081446   -2.29850484267002   -0.19936456495008
C         0.07317295612052   -2.57291642085165    1.18152387589433
C         1.12131290980748   -3.45969741129124    1.52143212109346
C         1.93917686867216   -3.97145229868318    0.52993656991556
Br        3.39936116345734   -5.10896943259645    1.01647640544010
C         1.68981881659719   -3.70572303531521   -0.81534884789445
C         0.63524909512930   -2.89745777063750   -1.17560035102138
C        -2.72711627403649    1.74330265069229   -0.07382732320869
H        -4.02352294447640    5.76140434190080    1.95596225174959
H        -3.34605623574844    6.31855352781235    0.41166225134370
H        -2.24559452614881    5.84573922650698    1.74593620363454
H        -5.81827235733406    2.28770500781259   -1.31726635856919
H        -5.46646278537063   -0.13280220619069   -1.92360460198507
H        -0.65070862744846    0.17914541484889    0.44715240582649
H        -0.76106592814238   -2.45896734470241    1.87005964431208
H         1.23546744584874   -3.81268211056103    2.53607534661361
H         2.31580690983853   -4.14646115619062   -1.57536468845898
H         0.42992090973659   -2.69698258743616   -2.21484013502074
H        -1.92000434573392    2.23812747301084    0.44205082073031
Cl        2.43522432561585   -0.53473731793503    0.06164327449037
