82
 energy: -136.875544192192 gnorm: 0.000296499160 xtb: 6.4.1 (afa7bdf)
Ir       -0.97724983142595   -0.69917553195321    1.15565501669768
C        -1.88909124785759    1.57131657138643    3.62990195741677
C        -0.86795235801685    0.69376278160059    2.99921364630206
C        -0.67642536966238   -0.68728130475306    3.36847457710294
C        -1.43659809645627   -1.39357000829157    4.43997068322617
C         0.55306362467022   -1.13548791203005    2.78227814363795
C         1.27811922525873   -2.38071824032040    3.15476493782470
C         1.02545569931776   -0.10650475297072    1.91760731454495
C         2.34710884738630   -0.08764341755383    1.22607630374094
C         0.15388357366973    1.05456991355297    2.08195901737834
C         0.49924270896804    2.39926654491488    1.60817751439063
C         0.44502216011388    3.48535240241642    2.48177600008362
C         0.83561927556148    4.73174628224988    2.03290069288253
F         0.75871347733246    5.77446764388598    2.88945440806481
C         1.30246290403063    4.95719763490593    0.75198151386065
C         1.34629204718783    3.86116013867038   -0.09087910722288
F         1.78534897847673    4.03501739091017   -1.35505027983513
C         0.95452723518672    2.59759113719863    0.30547553786208
H        -1.99025204370380    2.51140022594160    3.09819471015056
H        -1.58357102567411    1.77516520187101    4.65740509745758
H        -2.85749220987412    1.07848685818360    3.67136305290643
H        -1.37572670867993   -2.47118741395983    4.31749120256232
H        -1.01046937667232   -1.13805897053677    5.41068603739129
H        -2.48106058338175   -1.09532383548547    4.44173496354932
H         1.92558876053197   -2.15714011292576    4.00381463076017
H         0.59072070350477   -3.16742874173058    3.45118306454657
H         1.89500026769408   -2.74767544824808    2.34016493181118
H         2.22705409925361   -0.09527770554691    0.14427049804722
H         2.88376583940923    0.82288981909613    1.48801918235543
H         2.94297928987598   -0.94697655699241    1.51906482472171
H         0.13524248853807    3.37173735838214    3.50672255906276
H         1.59651576193467    5.93822826350047    0.42071585956092
H         0.96660182775558    1.79022313755443   -0.40827828292768
C        -2.59321860901415    7.96970934831607    1.92792056222336
O        -2.96379867702691    6.60031999448999    1.79429011678966
C        -2.30199874925111    5.88359876932381    0.88527574158339
O        -1.42773310156227    6.33953491285356    0.18075753769239
C        -2.74149177097782    4.46555387492614    0.84425980245763
C        -3.77310575524783    3.98858515434430    1.65132481254102
C        -4.14018279568650    2.65951052960473    1.58179444669506
C        -3.46147317938329    1.77729734681969    0.73695651635054
C        -3.92393218485935    0.38439898041172    0.61429723654970
C        -5.28920653606075    0.18893797214253    0.38440488174561
C        -5.79212928070470   -1.08295184862646    0.17393542780428
C        -4.90745950462273   -2.14502139489454    0.18591940586142
C        -3.56094279529989   -1.89518887798322    0.44399693801175
C        -2.58060214546415   -2.93690391743676    0.44219757285844
N        -1.34680866749113   -2.61755858507502    0.67475703270118
C        -0.36983504442042   -3.61374933875166    0.67275029047153
C        -0.59273770923207   -4.82750549371552    1.31745982750851
C         0.37914782014392   -5.81141831470098    1.29652604018071
C         1.57158253468116   -5.62440561220118    0.60722212103964
O         2.56641116286311   -6.52233682940586    0.51267443571872
C         2.41302525487123   -7.78911387766994    1.12481786168206
C         1.79664333688532   -4.38762027388302   -0.06264956576239
O         2.97066548474020   -4.29637260429866   -0.72332542123156
C         3.24630574145342   -3.11974408690958   -1.45725678544734
C         0.84049572809533   -3.39362288492250    0.00162717382077
N        -3.07361918987610   -0.64803530311874    0.67833932336713
C        -2.43868698802829    2.25965898778260   -0.07565647184054
C        -2.09588891538945    3.59693782938722   -0.03119421856005
H        -2.67689862183013    8.48041092660011    0.96689761866139
H        -3.27900925598214    8.39558270762239    2.65453814740678
H        -1.56208919049650    8.04519450622029    2.27898284108087
H        -4.28154733057007    4.66341692963526    2.32058788700717
H        -4.94133413548708    2.29686240369864    2.20732428084885
H        -5.93563923042627    1.05075520196106    0.34965948391990
H        -6.84371911352032   -1.23707775589563   -0.00882067864909
H        -5.23451653963626   -3.15489431221796    0.00190531831925
H        -2.86214769577077   -3.95319669808424    0.19392280126891
H        -1.50517827898888   -4.98920613441458    1.86894748855903
H         0.19561147396339   -6.73416505030698    1.82112902749191
H         2.30478182517966   -7.69477563543589    2.20848248904045
H         1.55754617195979   -8.32882035635539    0.71033021589354
H         3.32828200285118   -8.33199878842897    0.89831868702340
H         3.31999176469082   -2.25061940635704   -0.79882266864352
H         4.20750462226129   -3.29473552575823   -1.93580672911789
H         2.48518977080095   -2.93917415698128   -2.22078609222329
H         0.97584776233643   -2.45457531564340   -0.50811192458390
H        -1.94292032493653    1.60122183136609   -0.76952893058624
H        -1.32978559959919    3.99326092708174   -0.67827316468755
Cl       -0.48482148542825   -0.38111510786468   -1.15984095036566
