73
 energy: -124.522855433196 gnorm: 0.000769964254 xtb: 6.4.1 (afa7bdf)
Ir       -0.68582629056199   -0.57264750119447    1.55261076127224
C        -2.07637293793723    1.21131310683855    4.14438108700065
C        -0.88136482789217    0.56684080306817    3.53459956777198
C        -0.48123326638336   -0.79281932744745    3.76337826350701
C        -1.15995735477921   -1.73527502934463    4.69708029741993
C         0.82670320637514   -0.97361047378728    3.18552224942809
C         1.73598557117194   -2.12415316221148    3.43866251139800
C         1.17753144588564    0.22038081145091    2.49868860145553
C         2.51391079606365    0.52067557922371    1.91551655263187
C         0.10867745443029    1.18583564744503    2.71333450642997
C         0.23208933460610    2.62576037568870    2.42975731429428
C         0.17886959325973    3.52891972606634    3.49017370740495
C         0.35908731549343    4.87487193255026    3.23406118427686
F         0.31538519453384    5.74064645223621    4.26692207061980
C         0.58420141750930    5.36870502246585    1.96140124850938
C         0.62409088058048    4.44683188687832    0.92984180937261
F         0.83562937923799    4.89262074170694   -0.32456054048875
C         0.45564486576588    3.09058144312550    1.13544252769960
H        -2.24796995626300    2.20036633255304    3.73085201210279
H        -1.91482683090452    1.30147074132689    5.21902342328058
H        -2.96866222771494    0.60646216988517    3.99893151236602
H        -0.91068157422252   -2.76689350089486    4.46588587108436
H        -0.82861635511090   -1.52822715130747    5.71535308079841
H        -2.23866460911618   -1.61112148744647    4.66239813140496
H         2.29200976401041   -1.92514968349242    4.35566881548194
H         1.18664533424532   -3.05151793675052    3.57385437292235
H         2.45279494687622   -2.24670319212399    2.63186135429317
H         2.87248118044284   -0.30564295010408    1.30706086961957
H         2.48129186889231    1.41746743751987    1.30466229806176
H         3.22717184545374    0.67698712113691    2.72544947545966
H         0.02926226804579    3.19602624102028    4.50390543099385
H         0.72326611996149    6.42168376163168    1.78200159229118
H         0.47706659716655    2.41251897712141    0.29573168507635
C        -7.97958388370675    5.06025313936213    0.25306875795428
C        -7.43157484819572    3.64240266010506    0.24602427773094
O        -6.04594592301133    3.71055650872514    0.57215764976529
C        -5.31432568383668    2.59756302170884    0.61480362093805
C        -3.93988655148351    2.78898192513003    0.92473164667898
C        -3.08358663887905    1.73690585985589    1.02318241347771
C        -3.53014945329299    0.41451861990297    0.80367114549835
N        -2.67941192135293   -0.62690511685747    0.90371644595262
C        -3.09652983156411   -1.85446944186117    0.53860926072120
C        -2.07030390313871   -2.84347395054215    0.51097935553589
N        -0.87852906113406   -2.47039808231614    0.86327831521102
C         0.18969131686986   -3.37075786263011    0.79851339689059
C         1.37897805489258   -2.97335231347371    0.18168881673032
C         2.43596457893323   -3.85461870739220    0.09398065694713
C         2.31291993710843   -5.12889267952964    0.64346942352138
N         3.41582062949224   -6.04417797686574    0.55896978240889
O         3.29081208607662   -7.13808598651261    1.07819002131968
O         4.41851093872253   -5.67856643242291   -0.02612433034749
C         1.13786301164312   -5.52908151708736    1.27410467305019
C         0.07555776968993   -4.65207818183960    1.34727153360578
C        -4.42922125723006   -2.11813071730420    0.16388452679110
C        -5.33245746834635   -1.09522283893767    0.14872383195790
C        -4.90055225769897    0.21843698395462    0.44248284973294
C        -5.77117697643898    1.31474814643984    0.37419183157256
H        -7.84518962849851    5.50948785145936    1.23298205260211
H        -9.03826106659191    5.04358761058968    0.01244661671040
H        -7.45851314551647    5.66713734785421   -0.48224095704209
H        -7.55338693023575    3.19133048525720   -0.74611581230959
H        -7.95270960734846    3.02726996449516    0.98955624396272
H        -3.60081288852743    3.80166385006174    1.07108571925909
H        -2.03718805226460    1.90471622999686    1.21973630904463
H        -2.26642715806668   -3.84159537443577    0.13633683518900
H         1.44189191562693   -1.98557071149896   -0.24929239715743
H         3.35838767924972   -3.57646319430803   -0.39184571722662
H         1.07444355600013   -6.52150833111244    1.69294668039461
H        -0.83605617815960   -4.94640928238638    1.84341733254987
H        -4.70932428328090   -3.12527478093233   -0.09726823406578
H        -6.36590856906518   -1.26737781757855   -0.10879270538509
H        -6.79945543880300    1.12650456538342    0.11176237596873
Cl       -0.17715801777558    0.09489961268756   -0.67561289138266
