69
 energy: -124.357081430583 gnorm: 0.000628958050 xtb: 6.4.1 (afa7bdf)
Ir       -0.26136255312336   -0.78725987320331    1.55516937586889
C        -1.90931086426011    0.54830829165174    4.17911394758284
C        -0.61244141111396    0.27689139802653    3.50008212359683
C         0.23185419548552   -0.84385253825132    3.77250129812475
C        -0.01904879847866   -1.83455311855415    4.85547574059255
C         1.44098039358779   -0.68931897442824    3.00236269895819
C         2.67722572960177   -1.51682147184546    3.12570386040916
C         1.37540098934895    0.57521872526215    2.32607065388403
C         2.50105764307752    1.23316889606538    1.61597287415623
C         0.08352433633675    1.14557789912136    2.58293027641135
C        -0.34091186184081    2.49160280191951    2.17179820580457
C        -0.76275261521749    3.41198327658987    3.12924943932443
C        -1.14177984969217    4.67708513261323    2.72127666351204
F        -1.54429720286605    5.56158330505381    3.65465019158537
C        -1.12590062535988    5.07008754994195    1.39480947842798
C        -0.70135532745028    4.13401802583363    0.46832304416005
F        -0.67781406230282    4.47757865711903   -0.83440012233458
C        -0.30648820727581    2.85937901910580    0.82674424814360
H        -2.47142273586991    1.32506905189008    3.66810388592690
H        -1.71617884493149    0.87795365450749    5.20074532000718
H        -2.51539725661707   -0.35258180203008    4.23684290201084
H         0.75463046240853   -2.59385924830234    4.87633875386986
H        -0.00625159219545   -1.30965361808477    5.81126150985572
H        -0.99408267563603   -2.30537648529716    4.75567250611800
H         3.20229928333299   -1.24757373392150    4.04213013779725
H         2.44186751025161   -2.57663724962569    3.15781814937012
H         3.33725102505927   -1.33943829810841    2.28228635187671
H         2.73798923624634    0.71235497285092    0.68882916034266
H         2.25333653421681    2.26343297298374    1.37511165662528
H         3.38812232221645    1.21328245452143    2.24738991432335
H        -0.77421656707158    3.16764470004306    4.17838586105630
H        -1.42952206358041    6.05947940252879    1.09683201035850
H         0.00499518525502    2.15951561146772    0.06638570024565
C         3.86092372917637   -7.21869792311449   -0.08868600954146
O         3.23574596369900   -6.69743486398448    1.06925980689525
C         2.31309211524338   -5.73403716985975    0.94040697631981
C         1.89982164218926   -5.16497110475553   -0.25928350646173
C         0.92556454215625   -4.18617022318960   -0.28068026362830
C         0.38164593817493   -3.71141554905221    0.91265439888951
N        -0.57563821725282   -2.69939653074057    0.87770965814567
C        -1.57577092685242   -2.82223671376133    0.04755715926454
C        -2.45154551927602   -1.70954785546223   -0.11144852512377
C        -3.55981459546148   -1.68573975206614   -0.96850615504314
C        -4.30728671563608   -0.53429818825978   -1.07073992447137
C        -3.92242925384821    0.57368599493366   -0.30473246209712
C        -4.71438782323135    1.84991191332986   -0.39051350097726
F        -5.95398114234655    1.70607581065008    0.11238431098912
F        -4.14670768073756    2.86015896611654    0.28480595103266
F        -4.86763969866591    2.26580333888881   -1.65654369615183
C        -2.82270739703338    0.48494743307007    0.53010665065051
N        -2.10292025691392   -0.62648527069433    0.63247568798045
C         0.79910010370222   -4.26020269378135    2.13407642228908
C         1.72789354065637   -5.28267266207470    2.16043297585741
O         2.15302733020355   -5.93075068790250    3.26330958116416
C         1.58966612016207   -5.60437047034456    4.51916518919902
H         4.56086270433343   -7.96872228929719    0.27354301152418
H         3.13314146584184   -7.68977220352820   -0.75416810642431
H         4.40714347030378   -6.44011767298146   -0.62740820319059
H         2.33439036803554   -5.48692703450956   -1.19085540345846
H         0.63459318956719   -3.73513539927898   -1.21565891734750
H        -1.73249753463952   -3.73771129350529   -0.50895921078214
H        -3.80583250386028   -2.56142583453162   -1.54686100867741
H        -5.16247315695103   -0.47263787371708   -1.72566098609742
H        -2.51294428377348    1.33631077032645    1.11893885810084
H         0.32372046774375   -3.91617755739978    3.03629640012671
H         0.50243735920007   -5.71066273118386    4.50821127034959
H         1.86845782983095   -4.59246576676865    4.82402058999958
H         2.01706354315050   -6.31791829051339    5.22034767940837
Cl        0.57754455138881   -0.46593600878980   -0.64220751651344
