57
 energy: -87.699242538809 gnorm: 0.000177901217 xtb: 6.4.1 (afa7bdf)
Ir       -0.70124044283272   -0.85531722550882    1.28671303043698
C        -2.04071619792260    1.30573453046747    3.65882708557967
C        -0.89639703783932    0.51864175378137    3.11928834148188
C        -0.60338470560647   -0.84181639567313    3.50580858927748
C        -1.37827858443916   -1.62670280886521    4.50923881592432
C         0.71594885900013   -1.16496786066447    3.02626088290499
C         1.51635601514746   -2.34803116589421    3.44565360119285
C         1.16480602889150   -0.07862525656425    2.22703728652911
C         2.51602854780140    0.09635767662531    1.62482064655930
C         0.16388909145129    0.97546201046955    2.29486360105591
C         0.39317176685926    2.35664092642129    1.77884440480906
H        -1.85842961381486    1.49786421462946    4.71675217874087
H        -2.97517000023294    0.75605766909994    3.57743981560560
H        -2.15065849585158    2.25833689247319    3.15129145671313
H        -2.44228026191914   -1.42142820724600    4.42988279053166
H        -1.21288326649847   -2.69355150245715    4.38705099984128
H        -1.05308387703397   -1.34742781676520    5.51214547257889
H         0.88639855769756   -3.21350580919480    3.63144679789222
H         2.26275378121246   -2.60998175999741    2.70128984166175
H         2.03445077016711   -2.10117025279413    4.37334064794830
H         2.43777821318067    0.53741789002878    0.63347867583506
H         3.04068068897373   -0.85131430335632    1.54957895085371
H         3.10419677024735    0.77045654449052    2.24800989314091
H        -0.47036162524743    2.99521187028612    1.94033233759890
H         0.62522964199648    2.33708133859156    0.71510758662532
H         1.24720945889061    2.79287307480936    2.29675618476218
F         3.51045111048613   -6.15929473469456    0.68601243799587
C         2.44403383130014   -5.33460545464438    0.69059145301426
C         2.56505099676237   -4.07616397001093    0.12248276802595
C         1.47444086030677   -3.22890554451510    0.14011997075266
C         0.26912443939971   -3.65098798523262    0.70322149868927
N        -0.82775541365846   -2.78002186786594    0.69068809892108
C        -1.99740517130875   -3.20968733269641    0.33176093652822
C        -3.04898688891521   -2.24344849840016    0.27066944194481
C        -4.35909749028364   -2.55860546963922   -0.14225027795552
C        -5.28396960627642   -1.55877393150840   -0.24083037194469
C        -4.88799674643438   -0.22430632942105   -0.00467865572835
C        -5.76832286520314    0.86307326856361   -0.16918419626711
C        -5.33085964229323    2.14872006891458    0.00415051705031
C        -3.98914514141097    2.39679816423979    0.33510943403693
C        -3.11468928424239    1.36188862477310    0.53058261521436
C        -3.53942269605897    0.02780779423024    0.38767000196981
N        -2.67053432882029   -0.99454777856244    0.58808329762856
C         0.16981405499880   -4.92367381620654    1.26863130304548
C         1.26333585439003   -5.76828655651860    1.27075744279112
H         3.49987399847470   -3.77689572458404   -0.32331384654943
H         1.53028930808496   -2.24872182838012   -0.30793005887058
H        -2.15891263174156   -4.23269891399836    0.01255548498626
H        -4.60504401584738   -3.58367975585104   -0.36523965805786
H        -6.30437268717854   -1.76559250667960   -0.52434901853238
H        -6.78968126422538    0.66015067871567   -0.45249568503142
H        -6.00755907094776    2.97789355107148   -0.13100775283370
H        -3.64843805887845    3.41630292673896    0.42703994801248
H        -2.07384140838105    1.54460505111991    0.74164041035600
H        -0.75326816351615   -5.23923541701344    1.72947861873086
H         1.21127446928341   -6.75094616678445    1.71105923625987
Cl       -0.12214543014803   -0.17955857235564   -0.93174631026095
