86
 energy: -133.432023629244 gnorm: 0.000142412291 xtb: 6.4.1 (afa7bdf)
Ir        0.27118390214267   -0.24812314203033    1.92664631394912
C        -1.02985242866698    1.55766222556620    4.58200497963685
C         0.14808958584089    1.03422781623803    3.83953712704276
C         0.75781792584549   -0.24331955760156    4.09944564003048
C         1.99338522518139   -0.29960332225814    3.36913215325045
C         3.10114300929661   -1.26774820654505    3.59647833512352
C         2.07643637507872    0.87609921618379    2.55848091417149
C         0.93221676805521    1.71574437277590    2.86480759826366
C         0.80338405081033    3.12642665521908    2.47401513845151
C         0.71928458706678    4.10311946532492    3.46504301303054
C         0.63915614712909    5.43835970813635    3.12582877757265
C         0.64354027122290    5.83884133651507    1.79111904412630
C         0.55648797289062    7.26294713799659    1.43520368729430
C         1.35867135163502    7.79410462058010    0.42752804564836
C         1.27757842181686    9.13430054090445    0.09630136133667
C         0.38923894685974    9.96373169062148    0.76135257922690
C        -0.41537891152574    9.44524843974649    1.76300977983132
C        -0.33083044841750    8.10683255280235    2.10011817829556
C         0.73212213903175    4.85925005611398    0.80399841195196
C         0.80896851396457    3.52240539847015    1.13864327288906
C         3.27415606719965    1.29127951342484    1.77847116917926
C         0.33491455753580   -1.18694993341475    5.17438528227205
H        -0.74961541537280    1.69689128352187    5.62682562365314
H        -1.85916752935456    0.85348407583675    4.55921231862928
H        -1.35951663823704    2.50841281500531    4.17553908001742
H         3.74369350740045   -0.87025773961736    4.38323009168938
H         3.70450959906226   -1.39795015708337    2.70286123083549
H         2.73215460500129   -2.23774909460077    3.91723995770385
H         0.74469481247559    3.81674603991156    4.50521831995757
H         0.59307862472366    6.18486562349162    3.90465623106157
H         2.06494052086794    7.15660197044139   -0.08444353958635
H         1.91066002736708    9.53506020823917   -0.68233897175914
H         0.32480121791763   11.00993055303034    0.50030613442397
H        -1.11226012756883   10.08764417333086    2.28187801028263
H        -0.97240489143599    7.70567708513506    2.87113104488094
H         0.71624128445282    5.14867231914707   -0.23638216319508
H         0.84062356763023    2.77468883177073    0.36063619666158
H         3.69286324045859    0.45334764042226    1.22663537671853
H         3.02936811977744    2.08703978520593    1.08158776156452
H         4.03459707243598    1.65805173192668    2.46932296144145
H        -0.74677067086740   -1.20526372133164    5.27568190654736
H         0.69146437800608   -2.19345928255289    4.97363162585105
H         0.75750628222959   -0.86142956671223    6.12559762926874
C         4.03274632933502   -9.58566601263083    6.61817968175513
O         2.86805814810511   -9.28852895551736    5.87672303861069
C         2.88407763857107   -8.22507989289462    5.03056892661044
C         1.69364209152807   -7.97347058777518    4.34223971703491
C         1.59768095083089   -6.90995785479313    3.47368535267039
C         2.68746749401000   -6.06658663602882    3.24966889600155
C         2.58991065558442   -4.91822957814988    2.33802137865358
C         3.65414373821709   -4.56939394020730    1.50480891508860
C         3.57395592151583   -3.46225641293864    0.67783776633126
C         2.44344533405695   -2.66578375682257    0.67777070970876
C         1.36587925459934   -3.01687026270351    1.48895545134663
N         0.21351113647134   -2.21587829011410    1.47400428633778
C        -0.93926980905525   -2.75041826411752    1.23805616792421
C        -2.07011514928169   -1.88046795918219    1.15249745971573
C        -3.33514705781886   -2.29049138229726    0.73516818022982
C        -4.33526319987138   -1.35815843491237    0.55065231460358
C        -4.04515935617542   -0.00749705672796    0.76454246604225
O        -4.87485049049854    1.01674748614236    0.60668747196569
C        -6.21181002732240    0.78106770488941    0.18643790620332
C        -2.74143357334002    0.31915080376646    1.19972576892422
Br       -2.37906329781853    2.14851013257049    1.44949784510220
N        -1.79472012772898   -0.57425710335766    1.41775662878635
C         1.43449996055867   -4.14209719943190    2.30478779204599
C         3.87281513888472   -6.33156581191457    3.92884340165268
C         3.97642404833997   -7.39033205686868    4.81235434817336
H         4.87192618409176   -9.83378757012156    5.96161179127641
H         3.77986741759933  -10.45365004610395    7.22411850077141
H         4.31037990282878   -8.75407878985097    7.27272965504569
H         0.85734225080544   -8.63342783232380    4.51020994675635
H         0.67279572734276   -6.74793383132956    2.94170480424299
H         4.54319805742013   -5.17999522628456    1.49636971082232
H         4.40164828505306   -3.21403865564352    0.03137473508932
H         2.36332380560872   -1.79723132612465    0.04309264483324
H        -1.04141437442530   -3.80941238372842    1.03035313459029
H        -3.51875260283607   -3.33523732984709    0.54429046644789
H        -5.31456949727511   -1.66783702867901    0.22449446008929
H        -6.67273048391305    1.76487617519759    0.13770711256260
H        -6.74466424062983    0.16083937866067    0.90995292833734
H        -6.23551413937300    0.31535831624603   -0.80100026109511
H         0.60299673953249   -4.38311254606068    2.94964314140378
H         4.72647887344830   -5.68559888345950    3.78903856154133
H         4.91056748591003   -7.55441489270341    5.32533956246964
Cl        0.43314224008579    0.21396963504805   -0.41330839593826
