68
 energy: -104.373454612870 gnorm: 0.000866706156 xtb: 6.4.1 (afa7bdf)
Ir       -0.46757831700246   -1.28248195587074    1.17997523029720
C        -1.74361459112189    1.24979981164261    3.12263028819574
C        -0.60302849227947    0.37747931467298    2.71990282994251
C        -0.26394166872108   -0.87942268233848    3.35193469348444
C        -0.97835292674195   -1.46854480544176    4.52172068719944
C         1.03875158217792   -1.27149011639544    2.88415153758788
C         1.86775656723180   -2.36707306125872    3.45951984691661
C         1.43420869238859   -0.34924478326034    1.87540900842577
C         2.76843437436956   -0.25945481379720    1.21467002379426
C         0.42055818528332    0.69055876275344    1.79375991763949
C         0.58323237863305    1.94644418200180    1.00780287010829
H        -1.44354685431024    1.83719267924113    3.99124880391654
H        -2.61498110257635    0.66293110189881    3.40196592413754
H        -2.01578838251041    1.94177203024835    2.33019507073653
H        -2.05149001603268   -1.31590042055261    4.44588430747030
H        -0.77994087291165   -2.53328189321757    4.60696164359337
H        -0.63141046049799   -0.98429665160527    5.43542259473088
H         1.24961811769327   -3.18025396967949    3.82919128602163
H         2.56527326747840   -2.76522963669597    2.72791616252587
H         2.44090369195790   -1.96831684061110    4.29748016775431
H         2.65870375020820   -0.03405354430039    0.15586348758025
H         3.32616894235152   -1.18454124920312    1.32417568641849
H         3.34143214611459    0.54893226169277    1.66996218637027
H        -0.32833438086589    2.53635828900642    1.00291164643750
H         0.85661498925520    1.72018299739689   -0.02091879146903
H         1.38387551220133    2.54378038117627    1.44485442655702
C         5.25108203551066   -9.64898063343459    2.30722450102058
O         5.20825460548900   -8.38376180072587    1.67622387628901
C         4.04769390209737   -7.68659930191915    1.66077454590348
C         2.84435172263401   -8.13047485406435    2.25155392417802
C         1.71968670157861   -7.35657917115837    2.19242007223816
C         1.72461818854666   -6.10500220673790    1.54177205176485
C         0.57423549735129   -5.30230714576436    1.46065219762748
C         0.61819791764001   -4.07632494101794    0.83127856635168
N        -0.51215333762900   -3.25946735153355    0.75209449345884
C        -1.65699639781485   -3.75794802048466    0.39356051674883
C        -2.76110583790089   -2.85758642906165    0.33016185869528
C        -4.04287640292043   -3.18983045442175   -0.12382592972125
C        -5.00996013862411   -2.21618445840869   -0.19612255609514
C        -4.68679284798980   -0.90112468885392    0.17946568921375
C        -5.64515017987913    0.17043223088482    0.12382760847935
C        -6.97121670473833    0.19326976628797   -0.25661327840219
C        -7.40389149222427    1.52460676341086   -0.10630100162095
C        -6.32299634683699    2.22100775832964    0.35369888383522
O        -5.26373497241899    1.41855641558954    0.49521953767350
C        -3.38308645965946   -0.65121159721409    0.62471905392493
N        -2.45667969180691   -1.58978902740251    0.71127327633448
C         1.82544810283686   -3.62046995240211    0.25076338602703
C         2.94412180919148   -4.39623840528536    0.29580666082409
C         2.93617300544750   -5.65486064795882    0.94516750556607
C         4.07751795862371   -6.46189265462083    1.01883128273182
H         5.00876652768131   -9.57420896628468    3.37108183700430
H         6.27752861610591   -9.99286190016811    2.19509769799232
H         4.57677125851417  -10.35985975948623    1.82087043146801
H         2.80675675931367   -9.08390253384765    2.75337695040948
H         0.80460505176554   -7.70551662284675    2.64701133770938
H        -0.33777696482480   -5.64265816657583    1.92844698881781
H        -1.75850187419843   -4.79684674029051    0.10362041189314
H        -4.25053534142350   -4.20507386988095   -0.42038960593489
H        -6.00163861408860   -2.45227832483892   -0.54394600551056
H        -7.56220944186541   -0.63008266152661   -0.59984829205644
H        -8.38008732781544    1.91196300233711   -0.31054715945471
H        -6.19551234493359    3.25589088297861    0.60335438258433
H        -3.10431738538665    0.35103389077319    0.91191344744579
H         1.81772764699048   -2.67063988679505   -0.26052585224509
H         3.85950464614040   -4.06157526429408   -0.16861671202657
H         5.00231744996091   -6.13475927228155    0.57018686122618
Cl       -0.19294743020261   -0.86653238650298   -1.16211997874927
