82
 energy: -121.639475425639 gnorm: 0.000256261131 xtb: 6.4.1 (afa7bdf)
Ir       -1.06031716936020   -0.94936383765132    1.04873448785877
C        -1.14756504095542    1.52100930723227    3.42075868673393
C        -0.36890434233635    0.55331917351574    2.59531959900460
C        -0.08881660386150   -0.79069430008586    3.04100744818325
C        -0.49602476543029   -1.36246259536462    4.35628841432948
C         0.88842415133116   -1.36084996397417    2.15516504829579
C         1.64398713526563   -2.61682856539941    2.41555600182770
C         1.10546439889744   -0.43488856341539    1.09769208769752
C         2.12101996308014   -0.56239045022151    0.01315663475048
C         0.32628134971118    0.76902576426534    1.37206088050186
C         0.52748045442321    2.05450309599844    0.61413720925023
C        -0.75970548755230    2.72041136051450    0.11512621456149
C        -0.41275759931215    3.95057999377924   -0.71966921445497
C         0.40437968315099    4.94298337148244    0.10435038744197
C         1.67639864629414    4.28323184079287    0.63044118526932
C         1.34016272437750    3.04744439163641    1.46085889171518
H        -2.07312776539645    1.07471033779231    3.77895248824342
H        -1.37402359350724    2.43246824189660    2.87991446601685
H        -0.55033146659508    1.78303560925214    4.29482190446008
H        -0.50896775496684   -2.44827061863738    4.32130378689792
H         0.22259013449300   -1.05806255237903    5.11812520743183
H        -1.47791832044988   -1.00733204894854    4.65582346932159
H         1.01224249633781   -3.37574131287582    2.86936062344457
H         2.07488916482122   -3.02288229761069    1.50548072117294
H         2.45600594448648   -2.39287509855817    3.10833336276722
H         2.48131631171480   -1.58392251408731   -0.06883060523688
H         1.70146392289343   -0.26619760191052   -0.94607873069126
H         2.96899016844671    0.08699496433531    0.23104345270218
H         1.11880397935507    1.81675237479185   -0.27487379550655
H        -1.37967715443510    3.04020893773728    0.95334373390719
H        -1.32004333540471    2.00460670428229   -0.48901107846101
H        -1.32829369234127    4.42889583484549   -1.07351697811452
H         0.16074452352978    3.64640951503662   -1.59782571289620
H        -0.19455192104816    5.30001447066144    0.94550361628978
H         0.66261099589676    5.80885177981393   -0.50832991257643
H         2.23828057937360    4.99303141510092    1.24081274474741
H         2.30916253049813    3.99667414193170   -0.21273821363161
H         0.76686867372890    3.34705031064784    2.33845867197463
H         2.25944414791912    2.57122671783160    1.80659325061464
C         5.37447972693689   -4.34359575767666   -5.03515505869763
O         5.42042829590340   -4.94311707095487   -3.75728533499067
C         4.31049490486062   -4.90301078415583   -2.97401053271882
C         3.10678199006369   -4.29371263000122   -3.31708407399460
C         2.04156395024083   -4.31885161080124   -2.43515901319799
C         2.13677985409924   -4.95626353396031   -1.20187970043692
C         0.99067291579077   -5.00177897954176   -0.28371893766040
C         0.72892640365373   -6.14334418177581    0.47728687349807
C        -0.35172795337209   -6.18621273074331    1.34039013186796
C        -1.19981868458772   -5.10050960781225    1.46099401300251
C        -0.94667871672973   -3.95288729694137    0.70925582070266
N        -1.77751657398231   -2.82982488072578    0.81587372300119
C        -3.06394777404394   -2.96542267218254    0.75579632847852
C        -3.84421216767940   -1.77340429926368    0.87289135855960
C        -5.23463161943588   -1.71848257021172    0.72693431388681
C        -5.86184076711098   -0.49810742867747    0.79990002099842
Br       -7.74414595188021   -0.33113587507173    0.61141523746731
C        -5.10277291067684    0.67495694756129    1.01522368261181
O        -5.76387798617968    1.82386389909530    1.06868551521294
C        -5.05498364589031    3.04049636753752    1.25670094729124
C        -3.72324336953601    0.52248107274570    1.16630629003216
N        -3.11417550482195   -0.65756718527260    1.10094442587269
C         0.14528537355006   -3.90465470623175   -0.15166129280166
C         3.34969938650071   -5.56074913448267   -0.86410199207837
C         4.41939824600786   -5.53048948440013   -1.72948723212533
H         4.61513245142266   -4.81237824275558   -5.66798547368453
H         6.35856625185046   -4.50819693629623   -5.46980464110187
H         5.18329766332925   -3.26891244162685   -4.96441100881173
H         2.98569769423836   -3.80205282951471   -4.26921305296415
H         1.11252506435152   -3.85439912920894   -2.72924641853046
H         1.36705510090678   -7.00707043125347    0.37659038167893
H        -0.53816299057350   -7.07519101956919    1.92279741561461
H        -2.03063488004224   -5.12321586825848    2.14890129191111
H        -3.53104280548876   -3.92686898369565    0.57876991441112
H        -5.79737725985223   -2.62042504442981    0.54899847880677
H        -4.32541027942102    3.19399735112566    0.45909767079840
H        -5.81195899886817    3.82052887362904    1.21694731530299
H        -4.56416566074231    3.05617364356654    2.23182548116186
H        -3.08955414846926    1.37824430514529    1.33486080305438
H         0.31136251447135   -3.00828437827812   -0.72961559467951
H         3.46350589459031   -6.04115870979389    0.09588893784404
H         5.35918352608195   -5.99133994665451   -1.46969929556230
Cl       -1.32022462608569   -0.70063041264604   -1.31307715492207
