78
 energy: -128.977305790397 gnorm: 0.000752973232 xtb: 6.4.1 (afa7bdf)
Ir       -0.35535233904163   -0.14705495544763    1.79965542577818
C        -1.55970940068346    2.00721539669177    4.31276211826803
C        -0.44565633997927    1.27462955535335    3.65547014224156
C        -0.03029774064196   -0.05888334944852    4.01796146975236
C         1.22392534867200   -0.32008512446606    3.37872092698102
C         2.14473496044904   -1.43464465271973    3.72655804146053
C         1.50575687480659    0.77333362149909    2.49393775203398
C         0.47369163189370    1.78546779599022    2.70078019009681
C         0.55736593696513    3.18110193301801    2.24537929046196
C         0.60618790187856    4.19754999944884    3.19980946394370
C         0.73459345836195    5.51521899164432    2.81152050770259
C         0.81161249370745    5.86029690965164    1.46308337985017
C         0.94658367680830    7.26634928804809    1.05480007857721
C         1.80458200715636    7.62577334366160    0.01716081603027
C         1.93539353220778    8.94917898186985   -0.36180730499247
C         1.20690747654946    9.93448848856642    0.28484778389797
C         0.34813020801796    9.58794184945009    1.31532810253830
C         0.22104881006368    8.26594013779661    1.70024808009621
C         0.76063155809217    4.84073431851023    0.51424395813728
C         0.63759767817606    3.52017687200473    0.89757702373881
C         2.79311688705025    0.99879934029676    1.77966031762201
C        -0.63862361182312   -0.88634842429935    5.09557996884239
H        -1.29208138985915    2.17628117783112    5.35657455240907
H        -2.48029216184644    1.42748801131559    4.30329319171723
H        -1.73735497052977    2.96569023624205    3.83481764251665
H         2.75499981137104   -1.11849371432596    4.57362059954612
H         2.80862564926235   -1.68091076507965    2.90329412241433
H         1.58967329339249   -2.32017461409454    4.02279595958488
H         0.57503255981924    3.94966751684857    4.24950862115573
H         0.79593622312542    6.28783233951050    3.56304017487229
H         2.38834439795640    6.86565141731448   -0.48124111967354
H         2.60935410221509    9.21493590029610   -1.16345108882124
H         1.30826016228014   10.96793500194429   -0.01256831154993
H        -0.22540462600182   10.35223231699996    1.81960579414762
H        -0.46263721808211    8.00314189818921    2.49408100284764
H         0.79675364432361    5.08763963884397   -0.53613528990276
H         0.57044294183255    2.74729805754221    0.14803478346878
H         3.18172793065376    0.06984891039638    1.37109196593349
H         2.66926078528401    1.72048813759066    0.97766786943169
H         3.52335648944312    1.39303403334938    2.48694270042508
H        -1.65573386642346   -0.57004427461202    5.30449262233977
H        -0.64832602235296   -1.93733150333572    4.81710346635965
H        -0.04909076163153   -0.78226022276028    6.00651310117428
C        -0.95450788627438   -6.43923322678580    3.96385222087460
O        -0.10250514459327   -5.87526534440679    2.96597195335349
C        -0.06022510787059   -4.55628592550076    2.86405550222160
O        -0.72395748414975   -3.79631510036461    3.53620007206187
C         0.93354695188412   -4.10535727413930    1.84804044356814
C         2.08118106277042   -4.85092435431596    1.65292075552791
C         3.10493556761581   -4.40760213817364    0.80444435093297
O         4.15653992221941   -5.22667786727095    0.67880109385111
C         5.23723097550186   -4.85460070421082   -0.16138320211906
C         2.96594749342267   -3.16466868308597    0.17825794081095
C         1.82813429929481   -2.41014517480020    0.37876367377408
C         0.79024317941186   -2.86545215205440    1.19153197352125
N        -0.37252654746137   -2.09937263584760    1.27594577214191
C        -1.52253591056365   -2.64630540250962    1.04140958265371
C        -2.66655982681980   -1.79327310988267    1.01603057435143
N        -2.42125379597270   -0.48805077403317    1.28572791531804
C        -3.39549143232532    0.39276320406681    1.07677507770063
Br       -2.97728933070978    2.21746374510864    1.25426408931908
C        -4.68458274280929    0.03587256363477    0.70174747223443
C        -4.97755381462213   -1.30390531948496    0.49104516817141
C        -3.94580953194385   -2.21271553585504    0.62755390586575
F        -4.14688550467888   -3.51010624967161    0.37673689971188
H        -0.43166060613921   -6.45581276275349    4.92157384962800
H        -1.86738610644295   -5.84993790185120    4.06086053701287
H        -1.17693424647192   -7.45147759578319    3.63735890963167
H         2.20854264399929   -5.79146277996349    2.16308477810736
H         5.72181110132268   -3.94403453562869    0.19856389859235
H         4.90653880697122   -4.71940805082703   -1.19388732508708
H         5.93950524018650   -5.68393555700417   -0.11110440281057
H         3.73486356482430   -2.78428912472988   -0.47391853558165
H         1.70460525397267   -1.46719050530786   -0.13240458324430
H        -1.62090009308725   -3.69430598700074    0.78108489001576
H        -5.43700283710218    0.79762749110499    0.57541316407613
H        -5.96393580133469   -1.63200527957730    0.20349565537119
Cl       -0.22399129497001    0.36355423172028   -0.53330496505963
