78
 energy: -125.429319259721 gnorm: 0.000376312221 xtb: 6.4.1 (afa7bdf)
Ir       -0.54275308998912   -0.88406251563106    1.43449956700878
C        -1.70916567769705    0.83848406042991    4.13712585822292
C        -0.56126228740146    0.19922728969584    3.43569584402749
C        -0.15419987056652   -1.16593539464419    3.60987773180255
C         1.09827950331932   -1.34589731370781    2.92099217721034
C         2.01923830345241   -2.50525404289159    3.07299233616970
C         1.41676455801411   -0.12949630099249    2.25405530088339
C         0.37855303704985    0.83706290588989    2.56345213894459
C         0.48494649457697    2.28164147981266    2.30361577528251
C         0.45431308951438    3.17664806298250    3.37224832497498
C         0.60133613933603    4.53182416066966    3.15439783235323
C         0.78190300176514    5.03541367988831    1.86691124138470
C         0.94534676970065    6.47904502651767    1.63912599610614
C         1.87788311741804    6.94918698905724    0.71626956084426
C         2.03945807989785    8.30643767427024    0.50734861572385
C         1.26760858368233    9.21682034254242    1.21084852204168
C         0.33427148577159    8.76072633254643    2.12754322511981
C         0.17653847086061    7.40394436736072    2.34320853829186
C         0.80941069665238    4.13634507338867    0.80155246639686
C         0.66538602666396    2.77984144458674    1.01362714557446
C         2.71076299180048    0.16417697085154    1.58035566696875
C        -0.76049019987618   -2.13229450290769    4.56931309706462
H        -1.45655003050153    0.95601794684229    5.19162726273990
H        -2.60053529414331    0.21773692187659    4.08168941590664
H        -1.93141027961140    1.81610877734284    3.71988990724011
H         2.64160496107810   -2.33665573378457    3.95286708434409
H         2.67090374371654   -2.60110401176701    2.20975094924960
H         1.47750852665030   -3.43633353128324    3.21375434570283
H         0.34628086717500    2.80610417699223    4.37948544286796
H         0.60138687629384    5.20856785704495    3.99550521516671
H         2.49528254495719    6.24767646182866    0.17460260592809
H         2.77128320656662    8.65694734438041   -0.20616690425343
H         1.39317324192750   10.27679275549361    1.04515248506863
H        -0.27274025716068    9.46679695003108    2.67576435932563
H        -0.56366795314340    7.05806646703286    3.04997940208117
H         0.92775469503417    4.50610263480862   -0.20569394444568
H         0.66513896204566    2.10108912824747    0.17344682325630
H         2.93102541770108   -0.57167453943871    0.81027688452120
H         2.69562852034483    1.15090748914024    1.12771537288749
H         3.51078199190322    0.12779755354960    2.32021786779643
H        -1.83476946697908   -1.98933381723198    4.64621425058066
H        -0.55629478543985   -3.15754784486026    4.27257993326652
H        -0.32658432551276   -1.97410161313787    5.55745066504155
C         4.34844917805702   -5.14595392807093   -0.75674183555165
O         3.33046611613619   -4.17550223071948   -0.58398959553154
C         2.18826596037207   -4.52268173773759    0.03445931698364
C         1.92862270270987   -5.77977549582026    0.58241039026727
C         0.71185756929087   -6.01284616290545    1.20586284699002
Cl        0.40540743614129   -7.57890996641065    1.89096599662668
C        -0.26378622808180   -5.03745103898064    1.29335587005189
C         0.00282300667229   -3.78065390259165    0.74297756208242
N        -0.95794122492210   -2.76252284286876    0.80061613449411
C        -2.18800314465860   -3.01844905037076    0.48879518631472
C        -3.11130850504552   -1.92691943799726    0.51678919266115
C        -4.46811302733342   -2.07028643003827    0.16041385207640
C        -5.27639085865431   -0.97050998041639    0.15813990600233
C        -4.72012911958080    0.29563691843549    0.44981295548262
C        -5.48801337547645    1.47306451282750    0.40094721807811
C        -4.90069402190566    2.69017010145618    0.63713154506636
Cl       -5.83782202653417    4.14159845738567    0.56915982077272
C        -3.52539506378615    2.77731789555278    0.91770943876661
C        -2.76659008513666    1.64321578171192    0.99658092728343
C        -3.33448148497591    0.37131748893878    0.78426127367110
N        -2.57504941210792   -0.74745727033273    0.86965189551861
C         1.21880519829159   -3.52052600307574    0.13018956550775
H         4.72580361980959   -5.50016716636433    0.20588821366621
H         3.99206379205894   -5.99133045120530   -1.35037014002757
H         5.14517318571694   -4.63607953296304   -1.29414323769547
H         2.65307140819042   -6.57457247832738    0.53283144029356
H        -1.19429310016383   -5.23703025594632    1.79789615169885
H        -2.49827374960804   -4.00097883379584    0.15260767978242
H        -4.84111256753109   -3.04832457521598   -0.09653218543617
H        -6.32479949591841   -1.04484623069192   -0.08425649598999
H        -6.53707991242902    1.40600815513359    0.16090515312866
H        -3.07468746386063    3.74531017222148    1.06382156620740
H        -1.70652931481414    1.71640654298902    1.17489550965868
H         1.40769416727825   -2.55620381278576   -0.31428549020793
Cl       -0.09106354510920   -0.28893837374567   -0.82461901541303
