71
 energy: -109.645113507991 gnorm: 0.000293972377 xtb: 6.4.1 (afa7bdf)
Ir       -0.24962891116973   -0.77027545167973    1.98522832700084
C        -2.08522699991667    1.69694621553445    3.60176083547079
C        -0.90320229016710    0.79383338616460    3.51782571844253
C        -0.85112022502553   -0.51402461869267    4.12764362373637
C        -1.95670332924206   -1.13741535616314    4.91069564203942
C         0.52301440423322   -0.93395683745033    4.16363003197590
C         1.03078093731844   -2.02205468753980    5.04565483868694
C         1.28367876431082    0.01181449751181    3.41630466422431
C         2.76760394858856    0.08023498993768    3.28809810733665
C         0.39659434359102    1.10369848970827    3.04251648431568
C         0.87520126115783    2.39374382011925    2.46817794190240
H        -2.18981814534830    2.02258128458402    4.63771290223157
H        -3.00306453964503    1.18684802261045    3.32030508049975
H        -1.96839534576463    2.57583897445083    2.97690956472715
H        -2.92549556782442   -0.89083626240672    4.48569372539152
H        -1.85020825342665   -2.21799105527456    4.94808374798077
H        -1.93013221018978   -0.75921523895669    5.93361417302164
H         0.44960687030159   -2.93601002081799    4.94532503451800
H         2.08033415778530   -2.23570080695006    4.86761522127013
H         0.92974712444579   -1.68422996319280    6.07863829838874
H         3.04797822375268    0.44592266084379    2.30336511761852
H         3.22287038386548   -0.89368434789968    3.43664842124034
H         3.16580621737149    0.76822827488708    4.03467615750965
H         0.05418751693621    3.08382923327605    2.29928418736969
H         1.39452873314011    2.22514650843848    1.52593479728694
H         1.58103846378641    2.85419511041693    3.15889806111981
C         7.15179122585366   -4.89003644650594    6.68515917325750
O         6.61738831746105   -5.86439072122040    5.81289188162607
C         5.73289337301363   -5.47363739118056    4.85791443636173
C         5.30571657676375   -4.16572424601372    4.64825084153310
C         4.38949296081204   -3.89219161122803    3.64890274461346
C         3.88215349902085   -4.89458681045390    2.83144446748507
C         2.89773020467907   -4.59806078996258    1.77997907359502
C         3.01339882195588   -5.18386073027567    0.51897087703251
C         2.07419709918923   -4.92510156558227   -0.46389620655764
C         0.98843856102102   -4.11377548230445   -0.19906488352055
C         0.85282666199929   -3.52526637721229    1.06346496535278
N        -0.26155677343841   -2.71194851693151    1.31263248321267
C        -1.41737433773634   -3.11985510397602    0.87987424515662
C        -2.45936876658837   -2.15166052281722    0.74906372097101
C        -3.77287812999139   -2.45592442892682    0.33780793206636
C        -4.64655845521720   -1.43509321796801    0.09485204318051
C        -4.18237941090708   -0.09967309649935    0.15172043934544
C        -4.99108767569087    0.99234398620549   -0.21040677953719
C        -4.46736822145152    2.26068184935916   -0.22869363168227
Cl       -5.45717879374196    3.60452151455252   -0.68825400917114
C        -3.11673342485173    2.48660158150677    0.09198015924008
C        -2.32263530556967    1.44545722888432    0.48664190838012
C        -2.83519647167565    0.13480134134606    0.55496655541413
N        -2.04008962821173   -0.89035308130686    0.94377421312698
C         1.82402285523139   -3.75041260177444    2.03264799592904
C         4.32782104873625   -6.20109933646060    3.03892660326689
C         5.23178243276940   -6.48799732338246    4.03658933258756
H         6.36451955110141   -4.40556510651225    7.27010812981242
H         7.72429854915988   -4.13539835636319    6.13775146384631
H         7.81751537697127   -5.43176716379476    7.35438503995596
H         5.68332348674416   -3.35624400329234    5.25202441211218
H         4.09117727274937   -2.86913113921752    3.47759686970020
H         3.85580255452045   -5.82313681471355    0.30460266841797
H         2.18741159285412   -5.36093047498525   -1.44471258567606
H         0.27098780323305   -3.89054305786350   -0.97382167068625
H        -1.56262541313145   -4.13308228839235    0.52282353347479
H        -4.06326469767921   -3.48864177084019    0.23552235702468
H        -5.67157823538500   -1.62794204564354   -0.17998923940883
H        -6.01592128751947    0.81646700343926   -0.49542516380098
H        -2.71833360937068    3.48523876477985    0.01432559630519
H        -1.27465032102923    1.59365332454403    0.69500604771610
H         1.70989847651696   -3.30564497324930    3.00415711526157
H         3.94289762672020   -7.00223800069934    2.42618563705505
H         5.57164342441916   -7.49741336742631    4.20636118131664
Cl        0.94647007274146   -0.26951445103551   -0.01718767999653
