71
 energy: -122.153041404239 gnorm: 0.000709885603 xtb: 6.4.1 (afa7bdf)
Ir       -0.68223307292618   -0.76585503851157    0.65890720979519
C        -2.22412251382948    0.92104145666563    3.22969341553545
C        -1.00874943253596    0.31164004279276    2.62832911806181
C        -0.58528967180362   -1.04028639210330    2.85830005799187
C        -1.28280382316396   -2.02768541592888    3.72890181428810
C         0.75305786196508   -1.18094758929965    2.34021716190657
C         1.68284797598053   -2.30189233274502    2.64117717825340
C         1.11042706496527    0.04846509610592    1.71267646511038
C         2.44629560118142    0.38864851020670    1.15549392696437
C         0.01423556399609    0.97826424182174    1.88104261333886
C         0.13515871296228    2.44483349063269    1.64288566777706
H        -2.04416932883229    1.06371622000466    4.29602767856077
H        -3.08841776616364    0.26987625809837    3.12522595516996
H        -2.44717184144906    1.88609045094043    2.78654080921513
H        -2.36199953510598   -1.92620028006107    3.65499832251139
H        -1.00218819685065   -3.04625348441205    3.47311381612144
H        -0.99838185014255   -1.85201172850344    4.76701844790663
H         1.15993911729032   -3.24873210308382    2.74404256317098
H         2.45229782383054   -2.39876486949758    1.88100561142593
H         2.17637241476212   -2.08507237518196    3.59008618197246
H         2.36402543537033    1.14525267934129    0.38007560777116
H         2.93538279574366   -0.48823986183130    0.73909650406294
H         3.07286797303107    0.78421591640143    1.95590106898241
H        -0.81928115804166    2.94770075764608    1.75449948605030
H         0.52587105757163    2.65140113706563    0.64989456608896
H         0.83293087563498    2.86000051767973    2.37085388034277
C        -0.84196727702044    7.68865096983073   -0.61957707334145
O        -1.17790667096963    6.30422890171494   -0.64407238740520
C        -2.19967826677272    5.91601154780334    0.12057783699672
O        -2.83758435180513    6.67063402959674    0.82141652257427
C        -2.46348983625871    4.45628760137082    0.02043600639913
C        -1.72414072028162    3.62833396626811   -0.81988508880964
C        -2.01027437874601    2.27707709802476   -0.89023270347441
C        -3.04783661109670    1.73701819573826   -0.13409009439693
C        -3.47729338549650    0.34513244219998   -0.36084423190748
C        -4.78721605338859    0.16811452421353   -0.81984898316476
C        -5.23583281269330   -1.08516886474662   -1.19371716736957
C        -4.35013497316641   -2.14570258880869   -1.11352249949884
C        -3.07342455219715   -1.91753511588367   -0.60687701682971
C        -2.11498801941134   -2.97693982015002   -0.48465058384437
N        -0.95052097902342   -2.70861019918654    0.00310895542664
C        -0.04802596905118   -3.76177554300983    0.21722733363545
C        -0.50668839879996   -4.89653065152520    0.88696786481028
C         0.34557906234444   -5.95159417246239    1.16349418916380
C        -0.20628956028338   -7.13408688294242    1.90178720194472
F         0.72064976935483   -8.03730955564393    2.24196116911389
F        -1.14078319668471   -7.79616006345233    1.18509131544172
F        -0.82495264441098   -6.77253982432364    3.04689553745328
C         1.67708225754087   -5.90195810073992    0.75565621545773
C         2.13315846277582   -4.79068128023038    0.08704038373571
C         1.30111844076612   -3.69758164726207   -0.19738963694705
O         1.85291665307587   -2.68346567813549   -0.84483029174712
N        -2.64716011588222   -0.69159389905916   -0.20695744337372
C        -3.79584783693204    2.57121744527859    0.69937578252049
C        -3.49562089679413    3.91551300319085    0.78671263386962
H        -0.65191405178077    8.01322482964333    0.40504475504475
H        -1.66015147320539    8.28277408473597   -1.03064917199450
H         0.05082140333866    7.79085718929356   -1.22994209958179
H        -0.93553926899729    4.04923487625759   -1.42206080907096
H        -1.45327296955136    1.64697525648843   -1.56320596344250
H        -5.42692068161945    1.03239000060085   -0.89976823915829
H        -6.24192165093746   -1.22727785992700   -1.55504994853222
H        -4.62976538437201   -3.13818019181267   -1.42685394968178
H        -2.37003420705253   -3.97446866914831   -0.82644854637726
H        -1.53161486556130   -4.93326083448178    1.22636032489729
H         2.34035768273134   -6.72505017591484    0.96710380695114
H         3.15748494966631   -4.72836624843140   -0.24238681449785
H         1.23277071200487   -1.96594160148781   -1.12645083002498
H        -4.60899232296909    2.16386598677634    1.28057453994743
H        -4.05900518113872    4.57185216034399    1.43218795475082
Cl        0.11517008731658   -0.34256594483503   -1.56502688397852
