82
 energy: -124.536606245891 gnorm: 0.000177028411 xtb: 6.4.1 (afa7bdf)
Ir       -0.75260431118813   -0.80211456892042    2.01246804018094
C        -2.06816818753463    2.68772206422370    3.35688196294718
C        -1.11594841685606    1.57308741957418    3.61035277168802
C        -1.55245889240816    0.17939055845138    3.87655222168300
C        -0.40567552367124   -0.58441534424688    4.12166148852028
C        -0.35047179124506   -1.88411486942610    4.86893625736295
C         0.82046785031123    0.31322771067826    4.01794352467242
C         0.22786878170799    1.66825167072069    3.69811561473199
C         1.03628868906961    2.86111000421558    3.41746969600789
C         1.77517682356172    3.50434512371833    4.40608189873785
C         2.48669336877248    4.65232075156851    4.11468053851456
C         2.48793777264840    5.18769226060790    2.82829319483730
C         3.22292697804837    6.42526549249358    2.52499221902036
C         3.95085175482385    6.55163026085544    1.34363146139662
C         4.63368755750573    7.71974617123080    1.05814815558593
C         4.59505151197394    8.78391746665427    1.94438791252906
C         3.87206343039608    8.67053017070338    3.12069856127137
C         3.19375212922852    7.50086525618784    3.41051192064609
C         1.75834775286306    4.53337111430489    1.83746121053969
C         1.03884302862728    3.39217583577358    2.12881630301168
C         1.81603552874205    0.25885803579616    5.15225177162617
C        -2.89001347255044   -0.14461658548599    4.49322583841849
H        -1.52790193519429    3.60866545530193    3.15727784353362
H        -2.70238254859703    2.84146920818512    4.22893575930637
H        -2.70566038196358    2.45804835356327    2.50559582070817
H        -0.34748138833987   -1.68609531005956    5.94185968271546
H         0.55345813678167   -2.43880694543528    4.62651043577798
H        -1.21784292613995   -2.49961695102262    4.64449721503660
H         1.77088068050157    3.12504885289694    5.41633248502939
H         3.05691695151307    5.13793960417761    4.89307289145532
H         3.99782688278469    5.72178678644757    0.65338385856685
H         5.19893157600046    7.80208704076072    0.14084144360745
H         5.12583195649682    9.69745979420611    1.71936895877638
H         3.83505290087632    9.49898587723461    3.81351223130089
H         2.61893722998230    7.42711916520385    4.32239309945492
H         1.73473998897759    4.94123720689247    0.83764291895349
H         0.46981347837312    2.90100005791125    1.35319342952043
H         2.17667097339459   -0.75505500580489    5.30373085366934
H         2.66497819335478    0.90316078395807    4.93732667928176
H         1.33327177753058    0.60143389042249    6.06521065948018
H        -3.62061986945640    0.63208906306637    4.29194492026122
H        -3.27455256891070   -1.10368814494142    4.15710463117235
H        -2.76162358925020   -0.19977910130505    5.57510119127237
C        -6.74264856286689    0.64098500524305   -1.61353626062695
O        -5.49700864476363    0.04004345263629   -1.93171879045377
C        -4.59337017619588   -0.14001121442639   -0.96561010635688
C        -4.74658433592964    0.21870660189565    0.38059357815345
C        -3.72250507714255   -0.03176684106386    1.26992148618424
N        -2.56316540129345   -0.60107409053873    0.94297480854702
C        -2.40215183525047   -0.95369996431276   -0.36987109279524
C        -1.15761211418396   -1.59361352615444   -0.64939868415011
N        -0.31278250451709   -1.65932335517702    0.34452417123734
C         0.87083687656921   -2.39936744520765    0.18766816217525
C         1.67248413437366   -2.27069332039129   -0.96612515933904
C         2.80307390759959   -3.02437058406937   -1.10254311726249
C         3.18525592391481   -3.95844061663145   -0.11465307619480
C         4.33243832836239   -4.76332511540629   -0.25840816627154
C         4.67296701030815   -5.67289705430234    0.71559728916731
O         5.74297630380642   -6.50488281705028    0.68017320482281
C         6.59514353836714   -6.47214833736362   -0.44572899611369
C         3.86766551591789   -5.79314642502141    1.87604657954146
C         2.75669101010335   -5.02416391386486    2.03538628625503
C         2.37850964945391   -4.08506137238457    1.04770623935275
C         1.23307016875430   -3.28611949584097    1.17890685922322
C        -3.38523432486954   -0.74109249819944   -1.32555145110597
H        -6.60456497585346    1.65768232497126   -1.23878027523918
H        -7.29262388865716    0.04344024250116   -0.88297773036021
H        -7.29695596451838    0.67111286416155   -2.54894396332291
H        -5.64862993172251    0.68156310382021    0.74235833113945
H        -3.85534581613293    0.23310322366086    2.30363449112718
H        -0.96354018911770   -2.06565243922697   -1.60341327989372
H         1.39671496981375   -1.55230922991681   -1.72304834501633
H         3.42080387101063   -2.91615585450389   -1.98163691330198
H         4.92566795029414   -4.64837216492942   -1.15192975021479
H         6.05245095830366   -6.72417743153290   -1.36143053304113
H         7.06978496573288   -5.49278641794111   -0.55597317535693
H         7.35733810395998   -7.22574538763294   -0.25720018162021
H         4.16814797377091   -6.51563284402579    2.61827331935518
H         2.14692089414616   -5.12739058350769    2.91998878088203
H         0.60345900980302   -3.39962891503280    2.05084509155593
H        -3.22136183236376   -1.03271334297474   -2.34926625028161
Cl        1.60746363038078   -0.31240090177620    2.48858804676214
