77
 energy: -112.281306687019 gnorm: 0.000498418025 xtb: 6.4.1 (afa7bdf)
Ir       -0.91613059971235   -0.41596694367728    1.16589517601626
C        -2.09007874348847    1.90565211655118    3.51478441023700
C        -1.03069599639321    0.99905316130930    2.98331110657799
C        -0.94336560523064   -0.39070211912206    3.38542512238871
C        -1.87972040232198   -1.05220578299490    4.33935475653851
C         0.33644407160561   -0.89026461021962    2.98500866007725
C         0.94200190192513   -2.17308426372919    3.43736868857341
C         0.96760803683827    0.12154380251472    2.19919273908592
C         2.37418110910803    0.08093928995595    1.70072410811072
C         0.13792471443136    1.31915618271215    2.24547638745550
C         0.65364939211995    2.66769613988065    1.82237655246005
C        -0.25637581411394    3.47151302307749    0.88799673528275
C         0.44235484714240    4.76487845604084    0.47670226383588
C         0.78913966354980    5.60071845595723    1.70631111501012
C         1.67160434817387    4.80312956153452    2.66297082599203
C         0.98637124686404    3.50210361001187    3.07206612550370
H        -3.07994716373565    1.47328000560514    3.38565480879685
H        -2.07230144175510    2.88029608769352    3.04198017199023
H        -1.92199741993837    2.03567277279115    4.58477229685243
H        -1.81549590932578   -2.13434083772929    4.26768710228523
H        -1.61579443999066   -0.76349115914544    5.35785586805082
H        -2.90661509481949   -0.74593194725693    4.15756902067777
H         0.18974614295885   -2.94520287077210    3.57391305840633
H         1.69372706252824   -2.53278728481289    2.74070789116487
H         1.42610052482189   -2.00159009744902    4.39966302443094
H         2.73866599134399   -0.94069684631292    1.64727172618597
H         2.45066533502995    0.52846553573990    0.71255956930800
H         3.01729188438085    0.64053144010463    2.38040482470964
H         1.58819054563607    2.50180068924971    1.27839479479961
H        -1.19260629060387    3.72926229581076    1.38407713274487
H        -0.47922716700343    2.87623240428754    0.00122165586390
H        -0.20624121538928    5.33578074867072   -0.19068033233066
H         1.35617629896476    4.52936802439752   -0.07359687252033
H        -0.13049624335093    5.89434594089176    2.21832385568776
H         1.30423449995868    6.51386643755682    1.40165650937077
H         1.88704234105953    5.39803490922546    3.55308717512375
H         2.62315573942375    4.57961625489352    2.17490783575202
H         0.07151987314871    3.73313402383370    3.61795454571880
H         1.63921073085095    2.93137976333985    3.73531990471746
C        -8.78296408654126    4.47695005067190    0.09388335195423
C        -8.09186259978882    3.12465688231723    0.02513940434304
O        -6.70390054904114    3.33471770161384    0.26131735351263
C        -5.86476623206111    2.29456627955940    0.28223653716867
C        -4.50546461085655    2.62304494924937    0.53532023276177
C        -3.55182480013886    1.65689151924295    0.62117262634251
C        -3.87976794491671    0.29628149830820    0.43883229091398
N        -2.92627551575883   -0.65238630056457    0.53433655613401
C        -3.22635925673275   -1.91585677682387    0.18912411775575
C        -2.10678662094475   -2.79996361913043    0.14833082473385
N        -0.94811898130068   -2.30921275243131    0.46093725786759
C         0.19653587182611   -3.11093326391598    0.38115347925470
C         1.34887258114926   -2.60038896113954   -0.21720781901065
C         2.48405236083696   -3.38056299973595   -0.31695729200686
C         2.47385831261975   -4.66921637694774    0.19898108036872
Br        4.05473076915164   -5.75296036369430    0.07883864981256
C         1.33913677789920   -5.18649970189960    0.80704357893971
C         0.19974727076581   -4.41054145884510    0.89214883728808
C        -4.53376920727474   -2.31420213877311   -0.15734364033740
C        -5.53627224448336   -1.38816619456966   -0.15662258971468
C        -5.23147293493824   -0.03572985429459    0.11847811331814
C        -6.20561841087965    0.97264609452731    0.06893030137352
H        -8.63859674020986    4.92230876224849    1.07423115192086
H        -9.84649844313394    4.35326433933028   -0.08714180640760
H        -8.37041343878703    5.14574338130880   -0.65636449078189
H        -8.23342226608709    2.67386438204228   -0.96482166337916
H        -8.49630716659719    2.44959747625045    0.78948544151519
H        -4.26134408269001    3.66668773004201    0.65083106936517
H        -2.51566999495330    1.90902666321644    0.77616506829684
H        -2.21673005591169   -3.81847233844085   -0.20572574254847
H         1.32909961680031   -1.60301902618592   -0.62783418235550
H         3.37097666661309   -2.99258847943593   -0.79213399578315
H         1.34819628239119   -6.18663361864115    1.20921128488546
H        -0.67907778926332   -4.80350579131401    1.37939054033364
H        -4.71685269243547   -3.34598292514624   -0.40857859365961
H        -6.55265057961361   -1.66558358255143   -0.38907916202751
H        -7.21835582736594    0.68414976135882   -0.16183228353762
Cl       -0.46623519181946    0.33148368278404   -1.05282622957587
