79
 energy: -134.075485613401 gnorm: 0.000762310031 xtb: 6.4.1 (afa7bdf)
Ir       -0.64499186507614   -0.90548143418273    1.70124189787579
C        -1.92811973031886    0.79731757811808    4.36170886611274
C        -0.74833642278874    0.19925416342160    3.67575494401118
C        -0.23673837917310   -1.11748409909240    3.91061439998214
C         1.00804723915881   -1.24488320641524    3.18738435898494
C         2.00008758737754   -2.34949818039716    3.32489367019293
C         1.24813707666826   -0.02262555597422    2.50120764531418
C         0.13565195487248    0.86857976264166    2.76563533500342
C         0.11406797747902    2.30341908673162    2.43754750093696
C         0.13636261767254    3.24046995356929    3.47006237443254
C         0.18965855922532    4.59069705783201    3.18662216363642
C         0.21981527239358    5.04571522485771    1.86890013936152
C         0.30628217561278    6.48279616013370    1.56921363103580
C         1.13125881737821    6.94035571609313    0.54335925332397
C         1.22324199572388    8.29118813936364    0.26320599703770
C         0.48790155162342    9.20685633582086    0.99845034042482
C        -0.33612470672751    8.76299386356811    2.01991495477847
C        -0.42416416683315    7.41293310651000    2.30600350387786
C         0.17899791214543    4.10418956632017    0.84151039400761
C         0.12785337674234    2.75263097028752    1.11969446869665
C         2.50491196247741    0.33805247908218    1.79538260193691
C        -0.75142581345771   -2.04538389786799    4.95608788308688
H        -1.69578055544219    0.92164152069448    5.41967526701762
H        -2.80147992810652    0.15259670552556    4.29173709136102
H        -2.16395028823121    1.77272685250254    3.94559863154691
H         2.76584770980580   -2.04827514688101    4.04043995687406
H         2.49185157315536   -2.55299725150405    2.37613368374442
H         1.53675659204020   -3.26157264365429    3.68695348394162
H         0.14592484225558    2.90695869972365    4.49649055778264
H         0.23664593058588    5.30286282887005    3.99660939318172
H         1.72166179079159    6.23488187048757   -0.02317346309872
H         1.87308315621843    8.63245047927613   -0.52968749148998
H         0.55837516990168   10.26166350889046    0.77679081328289
H        -0.91198894393402    9.47357966260343    2.59495907267207
H        -1.07930215932996    7.07570218643174    3.09564827959305
H         0.17606973528220    4.43555911122062   -0.18610701995829
H         0.08699004434444    2.03693221404785    0.31298817011054
H         2.77582780592046   -0.41820070023966    1.06068555679482
H         2.40450863777673    1.29548295565429    1.29150390504305
H         3.31546519463848    0.40315216768719    2.52265003510436
H        -1.83494775238834   -2.00284449124981    5.02141979927707
H        -0.43621804966548   -3.06899784077887    4.78043049225169
H        -0.34873238753424   -1.73306238075298    5.92081327529824
O        -0.79730634914567   -4.66552757698442    2.98357514726669
C         0.00777698375791   -4.69540905125478    1.91383420567861
C         1.00681571252193   -5.66689584840534    1.85928063660726
C         1.85230602522471   -5.75272209941240    0.77332731058290
C         1.69664486538120   -4.86902978286398   -0.29086233549111
C         2.62374561044998   -4.91848483550870   -1.46784484050899
F         3.23983224794850   -6.10256020609624   -1.61128768503445
F         3.61114844405111   -3.99703327907229   -1.37518136090777
F         2.00272659488992   -4.66946953216309   -2.63512567189571
C         0.70708239877924   -3.89833425003429   -0.26188412853268
C        -0.12732206541491   -3.79459238570164    0.84353353424874
N        -1.08715958437693   -2.76218241975388    0.90281753016065
C        -2.11153405985718   -2.78187534947544    0.10522126656247
C        -2.97670988629640   -1.64858274092301    0.13295716984302
C        -4.16575632116744   -1.53591905530319   -0.59728071526985
C        -4.90985327143403   -0.38574622043991   -0.50013910877937
C        -4.45628005769449    0.66028538038871    0.32497732137686
C        -5.21519738354956    1.87137386282808    0.46744046932569
C        -4.98652983275270    3.02292125528544    1.19626427386679
C        -6.08365205890558    3.86804859369320    0.95645598767900
C        -6.90541524687843    3.18274450479319    0.10361804406072
O        -6.39365661191966    1.98790495829513   -0.19354923874935
C        -3.24880262151721    0.47724399324016    1.01110416391032
N        -2.53959281904066   -0.63672394311011    0.93200260687846
H        -1.51566107615135   -4.02354625266860    2.87682318718244
H         1.09906945669605   -6.35108954881947    2.68665209944687
H         2.62344858405928   -6.50558324852676    0.74146485440752
H         0.59665012168018   -3.19669176212540   -1.07419171765681
H        -2.29783986406171   -3.61723399691105   -0.55989394670395
H        -4.47789372140852   -2.35201797011951   -1.22872815560562
H        -5.83109527455572   -0.26785239484043   -1.04775814456522
H        -4.14192994589417    3.23697289835064    1.81671808651170
H        -6.24546906851571    4.84695037939800    1.35690666853173
H        -7.84686647469426    3.44154151813582   -0.33983958566674
H        -2.85662020051520    1.26283858056990    1.63810749013486
Cl        0.06277763998824   -0.46941927366904   -0.53693223348158
