74
 energy: -126.630644727880 gnorm: 0.000337193678 xtb: 6.4.1 (afa7bdf)
Ir       -0.90517440991890   -0.59856047101008    0.78252859940146
C        -2.40968525818836    1.11735338500207    3.34600899739428
C        -1.19439719689786    0.47216445791374    2.78253163934387
C        -0.85235650177706   -0.90317283768126    2.99635266409265
C        -1.61945471914321   -1.85460617992467    3.84949127706563
C         0.47851886412476   -1.11414347481710    2.49135447060552
C         1.32599961303466   -2.30833731454129    2.75806143278693
C         0.91755238819330    0.09441741037126    1.88033457703000
C         2.29593873532824    0.35247321143916    1.37740358822914
C        -0.12947118543182    1.09170555054391    2.05335989755705
C         0.09612665110930    2.52566856433869    1.84244044236052
C        -0.18746159970932    3.43608157705588    2.85995239352113
C         0.14264709967020    4.76600170377518    2.68575609837196
F        -0.12433793844315    5.63237531368490    3.68384155490701
C         0.75448990499189    5.24020192295271    1.53973341468215
C         1.01456498906560    4.31623043768541    0.54380692853155
F         1.60154588737438    4.74169309963140   -0.59249610507845
C         0.69693801806028    2.97784442486646    0.66796647466477
H        -2.55948418572825    2.10810031141669    2.92975902352120
H        -2.29165094163510    1.19943218569621    4.42741691744796
H        -3.29506124818084    0.51208400744914    3.16248297150939
H        -1.39098130261359   -2.88491877167149    3.59175940528796
H        -1.34369344217989   -1.69834282251230    4.89304575178815
H        -2.68942545012452   -1.69131355881973    3.75702359800594
H         1.84764790570592   -2.15526896247686    3.70405045693755
H         0.72966608307974   -3.21186961401082    2.84564125453939
H         2.06715275895036   -2.44991562401853    1.97718844485502
H         2.36943556898412    0.15152861174217    0.30916786159204
H         2.56304205613536    1.39463366528221    1.53646219227541
H         3.00925752195737   -0.28435756616045    1.89397338441905
H        -0.61856590481817    3.12419473272285    3.79598485061718
H         1.02016237097635    6.27846141716184    1.43335118500491
H         0.89926485012649    2.30163473637700   -0.14686759854291
C        -0.75104804001470    7.74781235516784   -0.96298259855719
O        -1.18830709205946    6.39534023893182   -0.86994041395371
C        -2.04713126215914    6.07910046359730    0.09998777368353
O        -2.47527636255982    6.87107949218333    0.91080610759171
C        -2.41519847387265    4.64013172790545    0.07550374977147
C        -1.81425535362624    3.74282147663485   -0.80232304413445
C        -2.18762451669951    2.41229354627009   -0.79642684061737
C        -3.18675702274268    1.96703487244058    0.06575215977879
C        -3.69816472217024    0.59295884298598   -0.07434599882428
C        -5.05501733064539    0.44507321921154   -0.37899154209717
C        -5.57177792532505   -0.79964753826572   -0.69073276213366
C        -4.70814431527300   -1.88167116840862   -0.71149103150018
C        -3.37948986567083   -1.68490507315162   -0.34708651068033
C        -2.41839145718067   -2.74852608605610   -0.32516986706576
N        -1.22685044877661   -2.47742844076951    0.09534349802323
C        -0.26004936277578   -3.49418171060940    0.13269332583333
C        -0.57699879204660   -4.74762867345433    0.66306103216647
C         0.37063515461238   -5.75237663794963    0.68329064512688
C         1.62705113003515   -5.49704483607418    0.15691966608412
F         2.54827943479190   -6.47862196885269    0.16481158346041
C         1.96485573586306   -4.26036631368247   -0.36952580085767
C         1.01942471417729   -3.25315485583193   -0.36905352534150
N        -2.88471810429473   -0.46711734728410    0.00109433995291
C        -3.80903077902862    2.87452347839674    0.92493198277377
C        -3.40764489464275    4.19455481277561    0.94646065522386
H        -1.39801269678670    8.29271613407630   -1.65202324333069
H        -0.78820386114791    8.22415560112248    0.01847009594582
H         0.26629358319040    7.71859317708520   -1.34707097895877
H        -1.06976753665954    4.09371594692070   -1.49808289377797
H        -1.73213702369913    1.72539668320828   -1.49034616242673
H        -5.67769835701192    1.32506780334351   -0.39434549506888
H        -6.61602726178845   -0.91804124150426   -0.93294391456101
H        -5.04501195831606   -2.86656228023845   -0.99059695498868
H        -2.68223237495698   -3.73343154177905   -0.69378468732019
H        -1.55522491328723   -4.92391499276745    1.08284830301863
H         0.14908224833759   -6.72424209924810    1.09405973225037
H         2.95235609068640   -4.10081249000866   -0.77159197084001
H         1.24778546585796   -2.28659711992984   -0.78943319652993
H        -4.60343907585360    2.54537670658473    1.57714874247372
H        -3.86528537803983    4.90712592385753    1.61553505238244
Cl       -0.00614298048388   -0.10404961627516   -1.36124205672248
