80
 energy: -111.846467686601 gnorm: 0.000489070582 xtb: 6.4.1 (afa7bdf)
Ir       -0.34494002788250   -0.67312229607286    1.97539659972385
C        -2.66472975306750    0.97926762232202    3.92577132191810
C        -1.27873295360531    0.47264306199041    3.71330982973450
C        -0.86133225577897   -0.83981898441923    4.13868524900344
C        -1.72417223180041   -1.81765247101358    4.86284665001231
C         0.57369900052393   -0.90135484821595    4.04893553194802
C         1.42666530081263   -1.94967442305580    4.67813318589218
C         1.02169452932595    0.30438004690406    3.44617115495046
C         2.44219372644746    0.73536276069386    3.29567932792608
C        -0.13562660493476    1.16671061569334    3.23142293360483
C         0.00442571852842    2.61908823023245    2.86303409964688
C        -0.89172874287168    3.09671100337531    1.71555729218582
C        -0.56022487206780    4.54833726601411    1.38011351731934
C        -0.76239848997491    5.44040179513276    2.60280393724904
C         0.09802364409118    4.95676107521818    3.76742663478138
C        -0.21620823963011    3.50120794390521    4.10267872054962
H        -3.40588139362191    0.24968132444555    3.60556587140622
H        -2.84322413786467    1.91623616334376    3.41056027181816
H        -2.80769297566180    1.14528029378789    4.99467172762993
H        -1.35157939410786   -2.83179344070487    4.75023809698507
H        -1.72703838314151   -1.57416397728711    5.92596579688265
H        -2.74905128400584   -1.78016460494866    4.50522432528861
H         1.63907087209218   -1.64720478732238    5.70462697887853
H         0.91843757811011   -2.90950838272528    4.71544083713482
H         2.37676829685245   -2.05911907855667    4.16247163156791
H         3.12200787235202   -0.10256980549157    3.41351557076346
H         2.61519671314316    1.18347796807529    2.31944942940685
H         2.67610279975743    1.47927422489617    4.05779936926725
H         1.03624773843838    2.76980660139015    2.53128564378880
H        -1.94550734421099    3.03894987577039    1.98952041102876
H        -0.72467721631891    2.46655383136050    0.84073937807450
H        -1.19371781668856    4.89244121586338    0.56013508850834
H         0.47765948322783    4.61871173358565    1.04609906713437
H        -1.81456101256911    5.42328498363019    2.89735801810054
H        -0.50517652675070    6.47233307045256    2.35529499262813
H        -0.07864346447488    5.58191917190000    4.64535726274024
H         1.15317160716765    5.05145309241306    3.49989478178942
H        -1.25141998508411    3.42247489210454    4.43609169627803
H         0.42635247808248    3.16147114379879    4.91740362506917
C        -0.85586553372212   -2.82223150662331    0.18000652737181
N        -0.05267627801584   -2.52232432650625    1.14706598747190
C         1.00851822026457   -3.46221984864542    1.44318177750836
C         2.22807216569827   -3.28731972430596    0.52107844177867
C         3.16161012964037   -2.16546568046359    0.98375357367222
C         4.29380869033223   -1.99638958539609    0.00962614882224
C         5.47218775474223   -2.71715322710433    0.15518247065914
C         6.49819766220246   -2.58394116443030   -0.76445888202652
C         6.35544771570562   -1.72849486669183   -1.84418419022769
C         5.18358837074843   -1.00564885231775   -1.99734655294974
C         4.15975809736112   -1.14034096741549   -1.07640534457823
C        -1.91845080933609   -1.91442932429165   -0.11452977457301
C        -2.84538234288377   -2.07583798263103   -1.14909785068717
C        -3.83409147741032   -1.13709226276583   -1.32557623709507
C        -3.88865356794830   -0.03175963191305   -0.46008664785330
C        -4.90859353452158    0.97685195204254   -0.56774898087611
C        -5.95253826558636    1.13023852541904   -1.45685684582313
C        -6.63401366405402    2.29963593573908   -1.07037009031123
C        -5.96760271967503    2.77880910751379    0.02165880506198
O        -4.93121036871861    1.99391934246008    0.33037853522704
C        -2.91420503062431    0.06364083396711    0.54103701098801
N        -1.96863590791796   -0.84345379878325    0.71718425100623
H        -0.74618487818432   -3.74017576082209   -0.38792873801820
H         0.61841418205240   -4.47654836834949    1.31679858941429
H         1.31986539202410   -3.33126379531029    2.47782487925220
H         2.78269340914187   -4.22658441673579    0.49994716945473
H         1.88742115328851   -3.07296532769590   -0.49294721214873
H         2.59477117975564   -1.23693886257578    1.04555950618967
H         3.56204303570762   -2.41253579469510    1.96851431334699
H         5.59271681036065   -3.38609188153641    0.99590761449330
H         7.41189653094135   -3.14747303795813   -0.63942084682987
H         7.15581452377886   -1.62350712591196   -2.56268466525846
H         5.06989131920281   -0.33423120214691   -2.83674752577954
H         3.24869687387456   -0.57182077637591   -1.19454761804944
H        -2.76763022038536   -2.93183768185758   -1.79966682138448
H        -4.55833116447268   -1.24457354900137   -2.11557205296186
H        -6.20143948187332    0.49567851672704   -2.28162447231360
H        -7.49820758384164    2.72589196534166   -1.53562243791375
H        -6.13740222261474    3.64005125407922    0.63714456667719
H        -2.92159460785100    0.91221713309654    1.20688682266128
Cl        0.67142618996032    0.24445585638432    0.01770993798367
