71
 energy: -116.685796341039 gnorm: 0.000701311043 xtb: 6.4.1 (afa7bdf)
Ir        1.19659618582039    0.91419380361316   -0.28877300480553
C         3.81324587353563   -1.36494522498759   -0.37641052744498
C         4.23812689847957    0.03280030706388   -0.09186785150647
C         5.58456062892084    0.28787560820542    0.16629291244468
C         6.02571801067510    1.57890477851383    0.38464052103995
C         5.09845520452879    2.60210795322523    0.31398331792378
C         3.76896949781337    2.28656606097161    0.06365410792805
C         2.77318187484300    3.33131911842329   -0.05118887745674
C         2.81414151921214    4.71209848161067    0.00392280598555
N         1.53420377790688    5.10274492941271   -0.19780293519164
C         0.99759935388971    6.39943007048761   -0.23590523652898
C         1.82159323720628    7.52080179137005   -0.25159333000010
C         1.25984398810717    8.78245783528421   -0.28101024999072
C        -0.12016909927136    8.90609273100798   -0.29772799731059
F        -0.66201996416196   10.12715055405655   -0.32305709139743
C        -0.95287218895942    7.79762238849612   -0.29116843229056
C        -0.38847486627747    6.53904049620325   -0.25985208515328
N         0.75419573140342    4.03852119936356   -0.36440154841269
N         1.48185518120973    2.98893988227749   -0.28256583568360
N         3.32953619522067    1.01833744409645   -0.11100833115770
H         4.67726868698689   -1.98811563467210   -0.58661586238218
H         3.13281034052954   -1.38524487538859   -1.22342275906567
H         3.28350390531324   -1.78542426028258    0.47572153162326
H         6.27882755959120   -0.53641393080270    0.18706139089226
H         7.06458097524711    1.78550812474263    0.58677999192662
H         5.39047995508698    3.63077484743320    0.44593460842387
H         3.62016138330702    5.39080704741755    0.17528828945040
H         2.89527268342006    7.42587454001390   -0.25197805499718
H         1.87663822599818    9.66632218189977   -0.29418763750150
H        -2.02220156453921    7.93123298366924   -0.30927504883329
H        -1.00550133574367    5.65503848714970   -0.25590618827603
C         0.80897484960023   -1.07125335048400   -0.09518897548068
C         0.50741456225867   -1.98633482882306   -1.10103428196799
C         0.14684387576890   -3.29269830244066   -0.81550385540413
C         0.06775571992142   -3.72216882757166    0.49959431222857
C         0.35185723610773   -2.84174632711589    1.52156310347786
C         0.72084432282484   -1.52280022390963    1.24164162413539
C         1.01807234604145   -0.56367611108024    2.30184817520423
N         1.19366694450586    0.70934597202032    1.89824505604261
C         1.45075957933459    1.65066692613381    2.79645572571768
C         1.56062412934521    1.40055881030998    4.14984306526671
C         1.39948116532067    0.09126594007246    4.58505752673536
C         1.12772855927117   -0.89261128404544    3.65680637355697
H         0.55745787553459   -1.67869642171903   -2.13585997203816
H        -0.07898167221172   -3.97546668164040   -1.62064995539084
H        -0.22009864523526   -4.73713459081567    0.72545377681780
H         0.26926324004477   -3.18209658868233    2.54225006560051
H         1.56761267234480    2.65871246615188    2.41945107195752
H         1.76660471889778    2.20207316852117    4.84014722641857
H         1.48442562888935   -0.15239133567915    5.63289611741713
H         1.00726833834898   -1.91343963886167    3.97831992022142
C         1.13663253241322    0.91452233841108   -2.31274771087731
C         2.19065170325669    0.81605876902119   -3.21178335432991
C         1.97355528697157    0.86778252256052   -4.58057089925261
C         0.69090161489643    1.02466480007986   -5.08191924988087
C        -0.37707344229605    1.13186989950720   -4.21430657223553
C        -0.16305708162500    1.07818639166272   -2.83677044835773
C        -1.21498625763095    1.17747612966942   -1.83804190563223
N        -0.78370928102648    1.07565431722782   -0.55901785687936
C        -1.66671554873075    1.15993525930160    0.43339822536125
C        -3.01838520270463    1.34598912663135    0.22432918562819
C        -3.48049583308848    1.44861660462157   -1.08146305058074
C        -2.56983340899702    1.36436837204690   -2.11434680361069
H         3.20433099708343    0.69331592922244   -2.85448842029272
H         2.80982280296345    0.78363597438039   -5.25882431070197
H         0.52804442564079    1.06219756606941   -6.14793737676592
H        -1.37272199001114    1.25405729712382   -4.61192783502679
H        -1.28180212407702    1.06885725754096    1.43952476052486
H        -3.69253099971535    1.40496660609411    1.06290248299662
H        -4.53062791497240    1.59042764086926   -1.28368908215292
H        -2.90004558056568    1.44217270773428   -3.13678547069139
