68
 energy: -116.437308987553 gnorm: 0.000795668443 xtb: 6.4.1 (afa7bdf)
Ir        0.56204187422212    0.99526884165528   -0.17926169026777
Br       -1.39417971312212   10.79748878353709   -0.74246581812165
C        -0.65795640331381    9.05519364057358   -0.61225191696653
C        -1.45607066308557    7.94974082865361   -0.87880990364313
C        -0.91898523825374    6.68297344853473   -0.77954601838534
C         0.41534982218369    6.52269371624950   -0.41337340361642
N         0.92631461800280    5.22029945102160   -0.30677544602620
C         2.21443350739504    4.81034665849344   -0.25804664520717
C         2.13988784499628    3.43402273691455   -0.14765004447615
C         3.11150660745522    2.36815142600483   -0.05683692998032
C         4.48109599713170    2.60113684263477    0.03924281310782
C         5.35113949821418    1.53312158941091    0.13235318163727
C         4.80592198340401    0.25248523392044    0.12190923191311
Br        5.91275252120773   -1.27658892826454    0.25379044325672
C         3.43344172768601    0.08819503788751    0.01550454144905
N         2.59261189196156    1.11717921252340   -0.06836716486497
N         0.81759958161991    3.11407055067876   -0.13572690150091
N         0.10979489569783    4.17479349257165   -0.22959269154306
C         1.21064143221361    7.63230861877626   -0.14380807506438
C         0.67198179544330    8.89985803210766   -0.24551243544005
H        -2.48739117884822    8.08341737255784   -1.16103970841055
H        -1.51820800034240    5.80977273014620   -0.98118875826892
H         3.04942257088230    5.47228027508647   -0.32783799250587
H         4.85402556517205    3.61248358590546    0.04225073009490
H         6.41628175699009    1.68081052333238    0.20962831462973
H         3.00117868240345   -0.90232478577650   -0.01106239562739
H         2.23926969309804    7.52139774841531    0.15998467733206
H         1.27948772875343    9.76575883966657   -0.03628459487996
C         0.49219738205693   -1.03025212189639   -0.12501790658202
C         0.39044230995281   -1.90934088335248   -1.19623312154337
C         0.37168744899312   -3.28261728348143   -1.00702503144408
C         0.45146242647681   -3.81023759973103    0.27131164221352
C         0.55237289583751   -2.96361902572715    1.35557420338648
C         0.57662411391615   -1.57825992505189    1.17479468676152
C         0.68360026503694   -0.64986849745667    2.29805645675996
N         0.59988285103620    0.65541380150268    1.97801008939428
C         0.66764481651912    1.57490181874349    2.93138955891052
C         0.83531853132517    1.26719770388064    4.26724878620225
C         0.94108396520499   -0.07273726747963    4.61827313815145
C         0.86229880798928   -1.03357173111698    3.63061013589687
H         0.32656620879840   -1.52181662360442   -2.20230321333655
H         0.29253591884302   -3.94039480762700   -1.85920546161363
H         0.43337336222641   -4.87849844999278    0.42169224054961
H         0.60593557570437   -3.38781430217704    2.34607766778912
H         0.57381224308657    2.60458790747059    2.61086078835640
H         0.88297666390104    2.04839814545742    5.00794447473373
H         1.08073506366345   -0.35906607622221    5.64927680933060
H         0.94369175822236   -2.07556799100830    3.88992412592829
C         0.44651563651100    1.13072645184258   -2.19878553663961
C         1.48281003325975    1.18774381330375   -3.12128282489646
C         1.22965322900255    1.33319829164118   -4.47715900210057
C        -0.07302799652028    1.42902014029603   -4.94013644850433
C        -1.12487295059004    1.37555835892832   -4.04803251118456
C        -0.87445032995742    1.22673949075436   -2.68361752141796
C        -1.90895663868547    1.14971756248832   -1.66311562009333
N        -1.44085834362444    1.00163467565576   -0.40027022370406
C        -2.31175298509409    0.91747844321075    0.60534672777594
C        -3.67932875685441    0.97328044173239    0.42592563964562
C        -4.17555335981302    1.12290328484279   -0.86251675571470
C        -3.28084349648729    1.21249502283961   -1.90902328370648
H         2.51162472359151    1.10803215086907   -2.79513102251409
H         2.05311401837140    1.36948213953404   -5.17489658918859
H        -0.26451948149137    1.54134209751123   -5.99602408380209
H        -2.13620753476272    1.44788304999726   -4.41686947218271
H        -1.90202092495216    0.79487327012408    1.59838326113602
H        -4.33939911072249    0.89721630415652    1.27421157479559
H        -5.23841591120239    1.16595296304584   -1.04170003664659
H        -3.63776482795050    1.32749875286556   -2.91892273953028
