74
 energy: -128.295525456579 gnorm: 0.000328860789 xtb: 6.4.1 (afa7bdf)
Ir        0.81463986053520    1.15337985751555   -0.16256119367399
F         1.72940857618606   11.64253883251192    2.23105762827962
C         2.58686875239869   10.61578904598965    2.11212909745926
F         3.75168920528334   11.13195204402229    1.69932407570151
F         2.79024039422053   10.14091290001561    3.34974460562216
C         2.06381512104614    9.55877111684370    1.17548596355569
C         1.26916786390153    8.53430764708421    1.67326857043055
C         0.77423034989984    7.57769544206884    0.80772079205584
C         1.06583401319857    7.63839072607489   -0.55060570418392
C         0.54034887949547    6.56306812238586   -1.47004817605960
N         1.07339635854126    5.27721097431498   -1.09617001060919
C         2.36739637451556    4.90676403073592   -1.03384694035953
C         2.33077540915264    3.58983311742383   -0.61257072856224
C         3.33157041887909    2.57339571392102   -0.36478002004450
C         4.69406271601732    2.85336605697757   -0.35861164827315
C         5.59230826575373    1.82952849702260   -0.12017230470668
C         5.09226409216930    0.55355949386904    0.10292169659689
C         3.72484516681571    0.35113553013301    0.08137381085587
N         2.84643951612052    1.33089455610810   -0.14260536174558
N         1.01925504051739    3.27082867497837   -0.44861786275181
N         0.28540778518598    4.28247652573242   -0.73284498134959
C         1.85638623472708    8.66997079911513   -1.03743130766994
C         2.35209721768677    9.63603947793906   -0.17948285985001
H         1.04425127904073    8.48983906564377    2.72743122391696
H         0.15017429474841    6.78201764611447    1.18732903345536
H        -0.54712284994051    6.48015692747394   -1.39438913373066
H         0.81057712897053    6.77795435538620   -2.50780589791389
H         3.17032700255386    5.56536635080390   -1.28638908461574
H         5.03287701421969    3.86104333533851   -0.53781111159366
H         6.65362394786187    2.01956445894297   -0.11098765241415
H         5.75306792960288   -0.27723129419921    0.28769066683447
H         3.31096722114362   -0.63468839505158    0.23937829473726
H         2.08150711892450    8.72918710964253   -2.09153731543668
H         2.96463437675144   10.43992722263845   -0.55664915185894
C         0.77758201377190   -0.84633815398389    0.16182671369483
C         0.67500972186953   -1.86048125957389   -0.78278193169727
C         0.65883613790716   -3.19617221305466   -0.41274654355940
C         0.74220210046761   -3.54924541456640    0.92436040955171
C         0.84510811079673   -2.56586582501057    1.88597753703284
C         0.86620347214791   -1.21677119159909    1.52251387244832
C         0.97841457326933   -0.14616813243372    2.51032335911593
N         0.91586903858664    1.10458595381180    2.01500565695764
C         1.00043900216672    2.14369223303375    2.83451284653577
C         1.15844314589812    2.01819092707583    4.20082173291450
C         1.23387632527281    0.73704945046044    4.73241338097498
C         1.14257336840912   -0.34774291821233    3.88404636155121
H         0.60759837234313   -1.61010090833466   -1.83118638364743
H         0.57827712564800   -3.96190540174209   -1.16939651352686
H         0.72520463735808   -4.58819787217045    1.21537850421573
H         0.90288900081434   -2.85469533316270    2.92394459380520
H         0.93034231240842    3.12129708315134    2.37509494778045
H         1.22081185485536    2.89173808245114    4.82864714182089
H         1.36061971286397    0.59126460584236    5.79407139637064
H         1.20099985822051   -1.34591653882200    4.28396164348622
C         0.63792911624100    1.02846027093253   -2.17716702068919
C         1.64427732766099    0.98936722567961   -3.13404332772883
C         1.34756065155390    0.97371028066519   -4.48862738223705
C         0.02994816103637    1.00250829264016   -4.91743977434645
C        -0.99288860202168    1.03887095205782   -3.99138120016118
C        -0.69850512596171    1.04984820232559   -2.62770922583757
C        -1.70166684218651    1.07548253062206   -1.57353616362916
N        -1.19565580860358    1.09303181840011   -0.31719198589242
C        -2.03654339525859    1.11139544865176    0.71642303089060
C        -3.40959312733308    1.11130668366876    0.57351366076379
C        -3.94433645044980    1.08968298743094   -0.70778166134887
C        -3.08080801865673    1.07351103632946   -1.78379579748135
H         2.68364841319836    0.95874311067313   -2.83393334309775
H         2.14849121664174    0.93768465145932   -5.21233447198777
H        -0.19576707712114    0.99223647699917   -5.97260909590755
H        -2.01597766499977    1.05844984453349   -4.33357621534650
H        -1.59715103534699    1.12142110668511    1.70431699491428
H        -4.04392596192859    1.12330020754438    1.44449265426394
H        -5.01239792732194    1.08311259918421   -0.85895168746555
H        -3.46833481034265    1.05474013484800   -2.78872972559700
