74
 energy: -119.210894051706 gnorm: 0.000168689613 xtb: 6.4.1 (afa7bdf)
Ir        0.73206418320680    1.26823450277891   -0.00320462728145
C        -2.79309070849993    8.41958096221330   -0.37155816442914
C        -1.31555540813749    8.23414203783649   -0.28194906990205
C        -0.76138564512312    6.96498918521725   -0.24121515983719
C         0.61576343717346    6.79674122193236   -0.15251520742119
N         1.12264304096786    5.48865888403771   -0.09967834218447
C         2.40806546613618    5.06874396196544   -0.06379304527091
C         2.32691280502176    3.69029364288386   -0.00013613679186
C         3.29432632123632    2.61650586067093    0.07087000680656
C         4.66511786257570    2.84642701566144    0.12958286979898
C         5.52850082821377    1.76855231891247    0.19438609379994
C         4.98700374998295    0.49005906395725    0.19584566387175
C         3.61408191424565    0.33875532719551    0.13491006863152
N         2.76938369629924    1.37027876334003    0.07757117020756
N         1.00447821793754    3.37701758803815   -0.00434008527550
N         0.30163898983390    4.44465780160849   -0.06083238587886
C         1.45874784578680    7.89987936973178   -0.10588466812910
C         0.93579407639257    9.18414798562493   -0.14875584949537
C         1.83441113946892   10.37450977150038   -0.10100649941134
C        -0.44949432427461    9.32784349824951   -0.23484627759899
Br       -1.18605475503030   11.08211679786526   -0.28718886376476
H        -3.30304172454816    7.46110409714678   -0.39744059221146
H        -3.05110614053080    8.98098562773309   -1.26893002722205
H        -3.15588170798074    8.98999818745231    0.48304032315081
H        -1.39385250087940    6.09275186909129   -0.27792290531363
H         3.24919395615851    5.72529496572857   -0.09324796835403
H         5.03773268385968    3.85796696520655    0.12182127625341
H         6.59516891419859    1.91992613703703    0.23926118031680
H         5.61990414358743   -0.38086419825004    0.23973027175691
H         3.16746558277149   -0.64536791025360    0.12294562764847
H         2.52789667120509    7.78283696235794   -0.03289409204196
H         2.87699749167593   10.07664635399723   -0.03643047529311
H         1.59321834888220   10.99765738236760    0.75964314827978
H         1.69911300344786   10.98656777685956   -0.99217847574463
C         0.62826813389494   -0.75045176402592    0.14236166021483
C         0.50195895604119   -1.67830714376856   -0.88546747203095
C         0.44095735855489   -3.03939622082905   -0.63149552443142
C         0.50333920235913   -3.50817483785453    0.67077065545967
C         0.62982911145241   -2.61415298344152    1.71322785122937
C         0.69534291146746   -1.24029704674031    1.46660144722398
C         0.82316812837820   -0.26426131638764    2.54607959016665
N         0.77228558642788    1.02668329423385    2.16669393810588
C         0.85563369317478    1.98606148253461    3.07831131820313
C         1.00816827364974    1.73622305550095    4.42790301664003
C         1.08199139654871    0.41168792718522    4.83980065905250
C         0.98674566171665   -0.59059204097038    3.89595063221285
H         0.45041230724690   -1.33747024133962   -1.90910920194656
H         0.34085674740282   -3.73458595871284   -1.45138658265746
H         0.45059100533421   -4.56707678311096    0.87185767432846
H         0.66877715347115   -2.99214702185118    2.72310858470575
H         0.78593387260356    3.00246267423449    2.71252486573329
H         1.06802742880337    2.54914894738379    5.13274098892657
H         1.20940205828686    0.16937079889189    5.88365842395654
H         1.04294906277947   -1.62125800564350    4.20300235413471
C         0.61105338646802    1.31206062961694   -2.02544901861643
C         1.64153056490372    1.29314006088762   -2.95683005971716
C         1.38242296570952    1.37207876026675   -4.31680728207467
C         0.07923699974074    1.47597345867221   -4.77706593093934
C        -0.96686659591034    1.49704753498633   -3.87717428676453
C        -0.71058960268705    1.41488420957377   -2.50808160471137
C        -1.74108735813520    1.41486766206800   -1.48088014219314
N        -1.27202206053280    1.30589101066859   -0.21461889999195
C        -2.13996874183156    1.29067973475047    0.79622010679733
C        -3.50606724387950    1.38224509906948    0.62016449536394
C        -4.00351367093154    1.49523366385186   -0.67154705156156
C        -3.11163855802194    1.51197178759448   -1.72402687409185
H         2.67024437080912    1.20450409348664   -2.63304788084248
H         2.20146797303532    1.34962248855185   -5.02048772732277
H        -0.11708081778503    1.53614772790064   -5.83644515487258
H        -1.97875872108055    1.57426549763554   -4.24379193432143
H        -1.72905385351656    1.19616845526097    1.79185630063653
H        -4.16393469622345    1.36187650480970    1.47338300575438
H        -5.06531881236257    1.56641038018559   -0.84853611084118
H        -3.46988103261265    1.59789964717472   -2.73634461056176
