78
 energy: -126.936143942362 gnorm: 0.000380974801 xtb: 6.4.1 (afa7bdf)
Ir        1.09963497745749    1.76159869994914    0.16054611668404
Br        6.62230226309617    0.03740574650180    0.91185320208872
C         5.34011163378757    1.43017619095411    0.92272029968841
C         5.70800815249505    2.73914143684282    1.22084661486770
C         4.71749008051936    3.70097688686820    1.21786579976223
C         3.40545927307624    3.33752902577987    0.92335374742188
C         2.31629762343640    4.28579381277783    0.91720119757457
C         2.21589679159064    5.65547728548699    1.09232237628310
N         0.90285562069698    5.91766842297269    0.96468800518046
C         0.28973114980422    7.21125939012506    0.85847884363681
C         0.14227018381075    7.56832459538356   -0.63836369793928
C         1.36364950226961    7.15123622050400   -1.38992148245543
C         1.46904768703733    6.07222880211726   -2.22117857845034
N         2.76024466881063    5.92355381680076   -2.63621649126662
C         3.52576206426184    6.90351743038177   -2.07297812094443
C         4.88806088896404    7.15790548562182   -2.17532728928472
C         5.39200144007056    8.22858429757625   -1.46969355146685
C         4.56436091350859    9.03521388295137   -0.68206629348682
C         3.21464816402406    8.78902338810504   -0.57491958712584
C         2.67671795715466    7.70529157645320   -1.27183321511639
N         0.22807039486280    4.81140699087822    0.71641979520487
N         1.05529870151994    3.83292691725773    0.68807791632524
N         3.06232224904471    2.06274326935303    0.62099179164936
C         4.01877052190809    1.13626579768052    0.62426416548050
H         6.73261609759111    2.98833413515414    1.44539371155607
H         4.94960166784116    4.73008756724588    1.43932793183837
H         2.94564265025977    6.41373027145737    1.27846133372881
H         0.93251215014417    7.93182427688104    1.36522787857983
H        -0.68740301132062    7.18017513427376    1.34260334907685
H        -0.72181072806109    7.04373994936377   -1.04749330413050
H        -0.02469929894415    8.64233494431172   -0.72296421494370
H         0.70553608359546    5.39424434164006   -2.55237137409495
H         3.07617335544582    5.21630352647774   -3.27862764935357
H         5.52389764982820    6.54186921863720   -2.79297914612195
H         6.44462862753549    8.45837046113606   -1.52938602510870
H         4.99878901678913    9.87113701278446   -0.15509322858400
H         2.58323548792757    9.42930281456338    0.02381411927376
H         3.72553866561528    0.12707542836603    0.37045179325946
C         1.28664189814538   -0.22574956974248   -0.19656505682591
C         1.48160823091075   -0.86237011152633   -1.41634943768484
C         1.61521921562974   -2.23942560025003   -1.50290241870579
C         1.55344962229737   -3.01750591440787   -0.35866274975166
C         1.35842841640339   -2.41594525320155    0.86719903511711
C         1.22497388389147   -1.02852459563722    0.96470770317867
C         1.01604644161576   -0.35569205326602    2.24494806490495
N         0.84503084254646    0.97821619714055    2.17535318401516
C         0.63262430357898    1.67533493016883    3.28339516660175
C         0.58298840823639    1.10193763744353    4.53888764377845
C         0.76787272245099   -0.27130644417978    4.63538054823138
C         0.98324463167463   -1.00173297441900    3.48428375915750
H         1.53306031774598   -0.27820989099482   -2.32319884400831
H         1.76606997928850   -2.70428986623667   -2.46539640201729
H         1.65543531243636   -4.08968803526633   -0.42285622298385
H         1.30665484847731   -3.03484140915464    1.74928731356024
H         0.48563375706726    2.74009098459332    3.15791883689488
H         0.40555699503062    1.70831629208291    5.41175267850338
H         0.74118033888516   -0.76133790525712    5.59640607883233
H         1.12750166954503   -2.06702106079616    3.54608972851435
C         1.28322439755324    2.28999803129531   -1.78589452386685
C         2.43919357903823    2.56387277861506   -2.50748131957309
C         2.38389787839447    2.92005910939602   -3.84746813537861
C         1.16228303173012    3.03469870311390   -4.49319598203024
C        -0.00430537312501    2.76949878242948   -3.80382453241875
C         0.04916854825683    2.38749308731626   -2.46311422484103
C        -1.11630939768419    2.03296025361953   -1.66479095380081
N        -0.83075596321219    1.64671389684476   -0.39797823963228
C        -1.83011705942160    1.28517956371572    0.40610025350390
C        -3.15318737496788    1.28197372683075    0.01163981222732
C        -3.46214854431519    1.67446044377664   -1.28370400964256
C        -2.43338523575801    2.05260233098555   -2.12243518927219
H         3.40966608402429    2.48420481288343   -2.03504948335624
H         3.29950318529802    3.09233825387137   -4.39694358885955
H         1.12368916529241    3.31885360630221   -5.53354469318315
H        -0.95030125486749    2.85096345408869   -4.31631137297272
H        -1.56522176081078    0.97843061327993    1.40837927225395
H        -3.92203127670595    0.97619780234986    0.70187924566495
H        -4.48414706916244    1.68119550514364   -1.62858929488324
H        -2.64483671288596    2.36007843536237   -3.13309438854625
