68
 energy: -113.514395059751 gnorm: 0.000543756017 xtb: 6.4.1 (afa7bdf)
Ir        0.57858193180595    0.99049428190689   -0.17382540636545
F        -1.16664789650354   10.26017729553459   -0.73747684861166
C        -0.65099000740583    9.03258039354087   -0.62967015235365
C        -1.45255874575679    7.93632750408135   -0.91054057885271
C        -0.91451207015784    6.67059447611040   -0.79996908613865
C         0.41335553308872    6.51445505750712   -0.40996771209175
N         0.92694154369708    5.21232821123519   -0.30090124062155
C         2.21660803699304    4.80608234101583   -0.26374565359666
C         2.14752347109883    3.43028943582009   -0.15195243719307
C         3.12517684211193    2.36610381224014   -0.07131969570210
C         4.49219739395577    2.61038990925372    0.00918433727500
C         5.36589935046490    1.54128230041486    0.08376789961036
C         4.83773689636014    0.25737523436655    0.07152376033164
C         3.46767854790575    0.09185249410893   -0.01273528850004
N         2.61277873530470    1.11454915194989   -0.07891396295108
N         0.82701084452128    3.10619361773521   -0.12799277429735
N         0.11427463451145    4.16471711645941   -0.21570184646920
C         1.20442001054325    7.62244657850777   -0.12236483423855
C         0.66986363919251    8.89121168887566   -0.23539553999952
H        -2.47657337648906    8.08490509791996   -1.21208303865686
H        -1.50642249067799    5.79456526267864   -1.01159419632320
H         3.04805135538047    5.47132000738969   -0.34446040462373
H         4.85365859558954    3.62597507513495    0.01225724485418
H         6.42993647878614    1.70349468973463    0.14681971357558
H         5.47871569838366   -0.60727741273474    0.12243493024989
H         3.03272540803194   -0.89722688125367   -0.03738851631778
H         2.22593333358407    7.50749283728278    0.20313115690566
H         1.26023106571469    9.76662558318846   -0.01796719673081
C         0.50427426344608   -1.03387055016280   -0.11788843633220
C         0.41374743427072   -1.91517736217558   -1.18912104750420
C         0.38117912317098   -3.28766937728504   -0.99862007069617
C         0.43650395505812   -3.81419592100685    0.28164754541466
C         0.52630535044586   -2.96655963864436    1.36595757081556
C         0.56274210216462   -1.58165035659540    1.18373288546430
C         0.65659276920418   -0.65237844701437    2.30719516969299
N         0.61243160547433    0.65348812418934    1.98149627984260
C         0.67216832737300    1.57394484062308    2.93421790461705
C         0.78965999475752    1.26708253994729    4.27566088529994
C         0.85073554646491   -0.07371658733577    4.63349983297575
C         0.78212746219042   -1.03546284372423    3.64604517758876
H         0.36963456987308   -1.52865329282193   -2.19668714211668
H         0.31013858995073   -3.94636742199468   -1.85097778280396
H         0.40747353702218   -4.88218802428903    0.43325885799895
H         0.56206695708351   -3.39009344633393    2.35766911828050
H         0.61290629815155    2.60463655659620    2.60885181586315
H         0.83165731443697    2.04932833318149    5.01558453355751
H         0.94752113290771   -0.36000478092570    5.66947274417696
H         0.82753794089272   -2.07819389732674    3.91124986727416
C         0.45558190620729    1.12728936963881   -2.19212762584513
C         1.48661362208955    1.18379657559231   -3.12132166828280
C         1.22619901535194    1.33011428434795   -4.47554132284875
C        -0.07898518969536    1.42628101790003   -4.93154017416809
C        -1.12564473337940    1.37343019358754   -4.03345228783080
C        -0.86792992491989    1.22513531028018   -2.67029876356193
C        -1.89862099020121    1.15277499156353   -1.64549793368226
N        -1.42727994330297    1.00233614620387   -0.38452899862624
C        -2.29507841998486    0.92446483267945    0.62364958716064
C        -3.66298268055979    0.98877730850016    0.44964644613727
C        -4.16273950545416    1.14061703929835   -0.83705491484004
C        -3.27106440345348    1.22385708710424   -1.88660732477548
H         2.51705242702725    1.10192762487702   -2.80093438510544
H         2.04587140791548    1.36668285791091   -5.17788705237704
H        -0.27649590865840    1.53900709689337   -5.98639812911322
H        -2.13893711894004    1.44628726157943   -4.39703225815401
H        -1.88290505585346    0.80084114625944    1.61545544991879
H        -4.32026193680378    0.91803486382940    1.30055809217356
H        -5.22596409846570    1.19058389467127   -1.01248920206412
H        -3.63117350328871    1.34078149038985   -2.89512587569228
