78
 energy: -123.358569034264 gnorm: 0.000670831045 xtb: 6.4.1 (afa7bdf)
Ir        0.96856522823398    1.64844632515411   -0.21075655956405
C         5.27015938817897    1.22863826748861    0.02595495053049
C         5.70960947151903    2.53777640803742   -0.12085120342630
C         4.76451647766567    3.53139845809169   -0.29631048210929
C         3.41600039465563    3.18939297309898   -0.31942370303139
C         2.37036019437362    4.17237195435753   -0.49525348871407
C         2.34696594569006    5.53361229811340   -0.74758667409373
N         1.03803281457936    5.84577396533739   -0.78716220559086
C         0.46141373173472    7.15412396605058   -0.89315500213335
C         0.53516723708421    7.86544929129647    0.47300910806741
C         1.94281948045965    7.93119734373682    0.96199394438905
C         2.50611805408387    7.19404169896863    1.96490607531263
N         3.83809117494201    7.48188397642039    2.07104763029777
C         4.16406230422462    8.42657881224779    1.13742359745487
C         5.38182435805267    9.03243540702524    0.85346678895576
C         5.40987527035109    9.95453469565192   -0.16995431043037
C         4.25748105815113   10.27248909393567   -0.89527633345932
C         3.04890233935556    9.67472120268089   -0.62038073782109
C         2.99131581022091    8.73228335757872    0.40779761931772
N         0.29528968235139    4.77654190806440   -0.56883578819382
N         1.07510401521329    3.77280550526872   -0.40139994846696
N         2.99015262450326    1.91438450137723   -0.17023143558030
C         3.91356877573605    0.96470729118318   -0.00627541218332
H         5.96917664928298    0.41962397796975    0.15979046524226
H         6.76129699445174    2.77534682528793   -0.10257506083330
H         5.05343827643915    4.56317767963651   -0.41791886971066
H         3.11977572789066    6.25219100081746   -0.91631272552271
H        -0.57607819991506    7.03460151119015   -1.20840435232770
H         1.01705743739713    7.72218412421772   -1.64144370886235
H        -0.08393238020309    7.32621589150448    1.19215396893280
H         0.12939355219016    8.87043636711368    0.35199574161520
H         2.04356957714546    6.48622991350425    2.62718808280655
H         4.45660592984857    7.13183712451473    2.78251521994168
H         6.26886203533818    8.79387749748825    1.42055424829704
H         6.33707768159239   10.44842367979816   -0.41565848571539
H         4.32291072568540   11.00703214066734   -1.68314616996706
H         2.16279846338427    9.93938569308996   -1.17820394184004
H         3.54632835866054   -0.04681756811417    0.09437219994298
C         1.02224977458819   -0.35344391448227    0.09387263593776
C         0.96792244770315   -1.36563559707879   -0.85770602686702
C         1.00617968704406   -2.70338733272478   -0.49770273322036
C         1.09763455052035   -3.06289789973669    0.83727784570775
C         1.15457079132555   -2.08323835735934    1.80630292641510
C         1.12028894623088   -0.73177392724759    1.45256512035606
C         1.17681521666573    0.33333803999003    2.45036515938899
N         1.04823808053139    1.58397836365088    1.96857815174892
C         1.07063784684557    2.61719306105414    2.79913898999780
C         1.22797811588350    2.48615061911099    4.16487446170705
C         1.37547995198996    1.20547876354756    4.68330298863492
C         1.34995330980243    0.12702075205347    3.82303078527175
H         0.89484290894164   -1.11015194102574   -1.90464310931441
H         0.96128657285616   -3.46627776147263   -1.26028147605819
H         1.12197059233396   -4.10381446010798    1.12092172208896
H         1.21837599588457   -2.37770948573811    2.84244092213754
H         0.94549350263913    3.59372396313888    2.34846928734769
H         1.23359608294350    3.35409299088954    4.80390803477255
H         1.50559039323381    1.05611389070825    5.74407870215177
H         1.46619736129333   -0.87035639155916    4.21209436596607
C         0.82607371005931    1.53684732382875   -2.22824094583295
C         1.84624216157084    1.54474146861265   -3.17116621293367
C         1.56970530211393    1.51689477852899   -4.52971586325935
C         0.25853076990305    1.48290455375534   -4.97732150461155
C        -0.77766943486863    1.47239876752358   -4.06575892033424
C        -0.50347424824942    1.49862467870353   -2.69804216364016
C        -1.52176254115764    1.48331258087074   -1.65882310462835
N        -1.03511253764158    1.50919057695746   -0.39501759157056
C        -1.89117695483829    1.49438508952465    0.62586027857266
C        -3.26129023897939    1.45370264570503    0.46272145346375
C        -3.77642169311023    1.42566863213848   -0.82659427683403
C        -2.89716834521864    1.44137967793890   -1.88953911390174
H         2.88167182231562    1.56292906799641   -2.85711659949292
H         2.38173123976809    1.52023420014257   -5.24191516559553
H         0.04830727778594    1.46149232644092   -6.03556351488826
H        -1.79558467471692    1.44318540090252   -4.42249400332244
H        -1.46652331361682    1.51026486667173    1.62012774253920
H        -3.90865969518542    1.44110941631283    1.32410403454208
H        -4.84161444743888    1.39076649679124   -0.99359093009420
H        -3.26881394829825    1.41952851518674   -2.90039339387670
