80
 energy: -130.990788605636 gnorm: 0.000382446267 xtb: 6.4.1 (afa7bdf)
Ir        0.62469524799660    0.91024060377744   -0.41557107689321
C         2.58674906710673    9.64966448635441   -1.64811461917277
O         1.47924689748054    9.81807151705699   -0.79296928484203
C         0.91410017580803    8.72852502377596   -0.22854592825942
C        -0.19477434301726    8.96102698674699    0.59020363853634
C        -0.84891465510777    7.92707558453015    1.22259013190954
C        -0.42537565643860    6.60858307545311    1.06235670364760
O        -0.97035081965808    5.52639293265247    1.67476525165319
C        -2.12249118108636    5.71194595233094    2.46684796149582
C         0.67857276378502    6.37923015173749    0.23174796178505
N         1.12632303946234    5.05940709925732    0.03903086335274
C         2.40474207802325    4.62180558741453    0.01668021265474
C         2.30140745057812    3.25707898539195   -0.17738559850650
C         3.23352052975594    2.15792407386205   -0.28201838436102
N         2.67461846196538    0.93969783925495   -0.41791443279403
C         3.47472043465279   -0.12171928464696   -0.53316666553418
C         4.85135159173165   -0.01591768216389   -0.50972568452992
C         5.44680614531977    1.22790788585999   -0.36687550913554
C         4.63017811084040    2.34841491652492   -0.25145704826326
O         5.06175232347572    3.61822804903484   -0.11223860127488
C         6.45654607433244    3.86159352292310   -0.09501689455229
N         0.97259674615170    2.97957229216893   -0.26439484775749
N         0.28766227889119    4.05150468365277   -0.13569899669749
C         1.34650742390873    7.41983821859637   -0.40390459289683
H         3.43834022930247    9.20994902627756   -1.11933627228140
H         2.33332618224241    9.03339348966757   -2.51612421144320
H         2.85152222969637   10.65040658453031   -1.98328331041263
H        -0.52872652632055    9.97784665443805    0.71573492542283
H        -1.69606031591299    8.15357782746432    1.84833825913258
H        -1.91699554710751    6.34900317300723    3.33225694535078
H        -2.40248952391841    4.71711495861788    2.80873468371218
H        -2.94313547679892    6.13739985054946    1.88323507625329
H         3.24982650831865    5.25833466275098    0.15692668698242
H         2.99048167725038   -1.07891541077506   -0.65486275189994
H         5.45940654146445   -0.90023724333044   -0.60638670052122
H         6.52057463334022    1.31352269655117   -0.35123427540005
H         6.56353438873498    4.93893340919499    0.01477899349431
H         6.92711335099917    3.54505458562847   -1.02921545187415
H         6.93727571577123    3.36313374078467    0.75056166975840
H         2.18136047783487    7.18422145712680   -1.04429317017619
C         0.46398546631608   -1.10930466779504   -0.36450719962270
C         0.23765466806148   -1.98225814751601   -1.42428381070043
C         0.16959474879996   -3.35336184025983   -1.23631053318321
C         0.32737069324478   -3.89125546884013    0.03088462610052
C         0.55187253170719   -3.05497222586024    1.10417320321284
C         0.62308357968141   -1.67119696853371    0.92333570618854
C         0.84093738064967   -0.75513240742792    2.04025818482386
N         0.76279406542050    0.55453080477810    1.73822718149971
C         0.90512501646036    1.46270859716356    2.69351193767169
C         1.15480920250795    1.13881872901170    4.01289117697944
C         1.26758873376513   -0.20578956949438    4.34274914653424
C         1.10621549293910   -1.15479685219315    3.35400779021065
H         0.11193765809951   -1.58725304260137   -2.42183827273400
H        -0.00938830538868   -4.00315796629190   -2.07981909271399
H         0.27154628307427   -4.95855587220340    0.18082864727517
H         0.66174187466657   -3.48635170897748    2.08726606587951
H         0.79998401521656    2.49722112087720    2.39295315454691
H         1.25917607323345    1.91157198773341    4.75683175272198
H         1.47342967457064   -0.50484281422905    5.35916581724397
H         1.18977188850138   -2.20055193060202    3.59739935417223
C         0.40650173222138    1.06111022469781   -2.42248163556980
C         1.38721251190026    1.03967785007078   -3.40606690349080
C         1.06474240168301    1.19524058978961   -4.74549337295672
C        -0.25354858293110    1.37879115498101   -5.13269960282105
C        -1.25127670886960    1.40593924097210   -4.17974966336993
C        -0.93093327166799    1.24905132906375   -2.83090785323811
C        -1.90480414711542    1.25870747801202   -1.75049250455276
N        -1.37692834526858    1.05509059557801   -0.51960178945886
C        -2.18712956800344    1.05384438315795    0.53788801591943
C        -3.55034787773113    1.24903708894660    0.44483147268334
C        -4.10839292513219    1.45517445515619   -0.81007979286888
C        -3.27629333197900    1.45912122673741   -1.91034517441072
H         2.42468013726398    0.88977358620424   -3.13822701321231
H         1.84553450371101    1.17058459595297   -5.49156288236414
H        -0.49912863351298    1.49748832965930   -6.17687471164787
H        -2.27551023283381    1.54622254161075   -4.48914617817796
H        -1.73021221066488    0.88356130660225    1.50284780989791
H        -4.16101308604927    1.23567408069721    1.33280179829777
H        -5.17044996748394    1.60819592242696   -0.92215407640372
H        -3.68165786989324    1.61824629890823   -2.89569443400864
