71
 energy: -109.168812518494 gnorm: 0.000216416804 xtb: 6.4.1 (afa7bdf)
Ir        0.68800854837202    0.85721372090119    0.27261554148093
C         0.87022143354647    8.65087489220007   -2.94875226021063
C         1.89565573395468    8.21240896870492   -2.24511321815693
C         1.84525498829505    7.40408460339612   -0.98071906268014
C         0.43624861774153    7.10377792521392   -0.47812528028142
C         0.43058388208177    6.39298727347129    0.87889569427171
N         0.96660498460378    5.06091994611907    0.79198637192139
C         2.25094203778437    4.66598099224251    0.88340414777782
C         2.20907780690941    3.29431881970841    0.70075154367807
C         3.20003371619201    2.23983570001458    0.68803493447991
C         4.55811562548380    2.48805602459664    0.85966787164131
C         5.44713017207055    1.42962954064953    0.82951570048339
C         4.94309727049721    0.15212494283461    0.62515009814039
C         3.58097609592635   -0.01766974906276    0.46103555983043
N         2.71126521341084    0.99444174219044    0.49289898220381
N         0.90317823239001    2.96944835255706    0.51148137641880
N         0.17835910563007    4.02513557032998    0.56824112696677
H        -0.15423052171024    8.46330437884551   -2.67839290897687
H         1.01951521817166    9.22926302308149   -3.84350860982210
H         2.90292460277125    8.43549451270942   -2.57268216227129
H         2.39642097074213    7.95429159818640   -0.21011335751729
H         2.38654408998204    6.46892901544979   -1.16287408208550
H        -0.10826429411945    8.04025487981541   -0.35689914269288
H        -0.09552645346394    6.48814028646164   -1.20542405572585
H        -0.59651614070696    6.29580269714702    1.23690630421103
H         1.01844235195088    6.95823432508643    1.60636964552706
H         3.05548731311529    5.34260630951452    1.07623602538633
H         4.90163444803024    3.49885978207853    1.00979123207813
H         6.50481791807479    1.59552573707529    0.95767907261805
H         5.59699948382923   -0.70351626960687    0.58880690546095
H         3.16433810207222   -0.99995311196541    0.28930575361690
C         0.64374063515991   -1.16797135222028    0.23196123255673
C         0.61888060652600   -2.00134678098625   -0.88081115016854
C         0.60028699197138   -3.38131655681256   -0.75401663880227
C         0.60510070767420   -3.96497228380404    0.50249694450575
C         0.62862545911977   -3.16630771665314    1.62655368496508
C         0.64869195044223   -1.77400178586501    1.50871234021171
C         0.66454003486009   -0.89793706964057    2.67762841858310
N         0.59850082812686    0.42061050611170    2.41350377051094
C         0.58018805274431    1.29283840560811    3.41198970274407
C         0.63874104508354    0.92394199223387    4.74137727010443
C         0.72568794377716   -0.43060118032787    5.03658275763700
C         0.73617769796552   -1.34310583120978    4.00146592085923
H         0.61536422320555   -1.57002061914830   -1.87106131674949
H         0.57966929630156   -4.00145313951207   -1.63749234476690
H         0.58782727156631   -5.03911458744307    0.60453220525793
H         0.62425972239078   -3.63435435812231    2.59871832740051
H         0.50303306663753    2.33655467873818    3.13557988286298
H         0.61706572017015    1.66947046291645    5.51917794676564
H         0.78053813284705   -0.76511846968243    6.06109763816301
H         0.80197886617514   -2.39587629690136    4.21818592082496
C         0.68573298075888    1.07802625611735   -1.74118246213724
C         1.76987248639613    1.19117102262711   -2.60237958724726
C         1.58956281461974    1.37341408994020   -3.96517896276693
C         0.31292260367229    1.44988165534264   -4.49912220170313
C        -0.78513208909234    1.34096529126090   -3.67026916056546
C        -0.60801456313912    1.15494845574914   -2.29887787725042
C        -1.69767570020505    1.01863348621329   -1.34429707124197
N        -1.30053157338552    0.84453600583499   -0.06096232809979
C        -2.22610519517838    0.70996489022583    0.88806425670684
C        -3.58189262387327    0.73471380835734    0.63009078589665
C        -4.00575708348123    0.90701112099194   -0.68108225355997
C        -3.05415542190324    1.05135511221837   -1.66943425465130
H         2.78060198549464    1.12797188749861   -2.22100210199201
H         2.44964945813201    1.45386115413996   -4.61349621940445
H         0.17795714782575    1.59069551818659   -5.56043534909137
H        -1.77578060980202    1.39892200636217   -4.09392085438497
H        -1.87220412884778    0.57063508844644    1.90017913250771
H        -4.28797012804453    0.61743178567351    1.43561789693075
H        -5.05713130203191    0.92571753039874   -0.92191492410143
H        -3.35475886426751    1.18629738719668   -2.69502572506856
