74
 energy: -122.784085616567 gnorm: 0.000173438916 xtb: 6.4.1 (afa7bdf)
Ir        0.71221802909510    1.27191045195845    0.00097030863357
C        -2.78842928133709    8.44837756133211   -0.40119894315197
C        -1.31244000805519    8.25514730356711   -0.30452904929527
C        -0.76494228830993    6.98311235386571   -0.26114354827888
C         0.61089307744202    6.80834777247621   -0.16481535088686
N         1.11219572554645    5.49818214187006   -0.10719779649599
C         2.39592693347433    5.07473383594595   -0.07221537280431
C         2.31017781775663    3.69629089498647    0.00135028088061
C         3.27353855477691    2.62262569674086    0.08220051187643
C         4.64654247530205    2.84467731561495    0.15419732976553
C         5.50920392142865    1.77034371949889    0.24166229088753
C         4.95330346370534    0.49430630593802    0.24979443227928
Br        6.05002911849050   -1.04299496752484    0.37399551138010
C         3.57804591766077    0.34058703883332    0.16829032408176
N         2.74441469396264    1.37601556545873    0.09067305125965
N         0.98620476996067    3.38756377796554    0.00323118340226
N         0.28786089098356    4.45762551917018   -0.05868406400709
C         1.45920721439793    7.90728436659063   -0.11350381479903
C         0.94309396530504    9.19411238683831   -0.15924940531446
C         1.84757138371281   10.37961796715133   -0.10599475827697
C        -0.44116104639875    9.34473529973269   -0.25267881749270
Br       -1.16817801355840   11.10250675338730   -0.30783343313682
H        -3.15227297982660    9.01914415533095    0.45272084841481
H        -3.03908548898063    9.01302789748608   -1.29859658650433
H        -3.30346606192160    7.49277681884202   -0.43137716620651
H        -1.40165915629335    6.11412010441003   -0.30119442852465
H         3.23955590164608    5.72754053819881   -0.11048600562147
H         5.02767039217402    3.85286340147990    0.14197005810158
H         6.57663598850902    1.90963658048271    0.30014144216336
H         3.13683990964649   -0.64624932784279    0.15801043761527
H         2.52724377069627    7.78500667673327   -0.03358584720726
H         1.60596763714283   11.00273261573600    0.75454474864078
H         1.71927742237399   10.99372963144487   -0.99675388114407
H         2.88830415586244   10.07625367163808   -0.03737733871955
C         0.62611053935407   -0.74920065937125    0.13431940053128
C         0.50317888216168   -1.67028343218781   -0.89907749773838
C         0.47763667373468   -3.03464450392129   -0.65482554546344
C         0.57281591845017   -3.51154954127668    0.64230695063016
C         0.69482789618447   -2.62297298496020    1.69011467722353
C         0.72505592144090   -1.24610840574147    1.45365910698923
C         0.84882293343509   -0.27543744009390    2.53870741587590
N         0.75851252451367    1.01662754266713    2.17084133263320
C         0.83418794283892    1.97136987155880    3.08819005510281
C         1.01909657034306    1.71494328134398    4.43247202898629
C         1.13557217599034    0.38956453948309    4.83195431156128
C         1.04714655291563   -0.60795212441643    3.88229910719407
H         0.42768290489469   -1.32288826297405   -1.91893343461150
H         0.38115825141326   -3.72541149123539   -1.47869259873542
H         0.54970830895973   -4.57282711369413    0.83556826682549
H         0.75922376848773   -3.00750629242609    2.69607150933829
H         0.73174308609948    2.98804327984485    2.73088064300310
H         1.07188252887865    2.52366924279609    5.14265014042272
H         1.29059525220998    0.14276620868023    5.87095712262777
H         1.13660740401276   -1.63907777200420    4.17962530926803
C         0.59016999452359    1.32423746492498   -2.02164743493159
C         1.62238721787674    1.32022753590808   -2.95061827494305
C         1.36441226517435    1.40013152038196   -4.31094631380911
C         0.06083301179342    1.49006109749303   -4.77275880810930
C        -0.98701691075837    1.49744991574925   -3.87453431768412
C        -0.73173183930374    1.41454598830031   -2.50534702399504
C        -1.76195676462461    1.40173082795231   -1.47803935014181
N        -1.29031686458463    1.29652104570170   -0.21202075070695
C        -2.15745899092157    1.27091066335448    0.79994095496242
C        -3.52452867097443    1.34757294334120    0.62451274467639
C        -4.02430876675686    1.45610226474331   -0.66673483850265
C        -3.13358496576121    1.48395591989098   -1.71999236606480
H         2.65171610599577    1.24286227785866   -2.62574242279767
H         2.18474046476069    1.38888512002376   -5.01325684455610
H        -0.13436054988216    1.55018763535707   -5.83226581043903
H        -1.99917421036052    1.56440968669101   -4.24220259944851
H        -1.74476171143006    1.18015242022073    1.79520767769097
H        -4.18154032871086    1.31899739893049    1.47810949837900
H        -5.08696670131064    1.51515022710037   -0.84276879917809
H        -3.49331862742168    1.56665727868101   -2.73203937356849
