71
 energy: -116.035722448717 gnorm: 0.000556102686 xtb: 6.4.1 (afa7bdf)
Ir        1.04518874750147    0.89885691398762   -0.15506391285267
C         3.66207990354232   -1.37791044692823   -0.28999772478347
C         4.09172349332237    0.02162650608093   -0.02256761885329
C         5.44346601361246    0.27939063078414    0.20377714228497
C         5.88786047510161    1.57180792407547    0.40621683825890
C         4.95829790911310    2.59385066908661    0.35043064387636
C         3.62405441507242    2.27579122575695    0.13054916377478
C         2.62536368565740    3.31918432785675    0.03076592696046
C         2.66929564282913    4.70032125232482    0.06429882691629
N         1.38397690189966    5.08988861288515   -0.10580033906208
C         0.84679341935366    6.38486706147274   -0.14869443836496
C        -0.53821929119528    6.52476805082110   -0.21186928228471
C        -1.10240897913887    7.78289238216715   -0.24811793492810
C        -0.28160407521332    8.90287221522765   -0.22136822614094
Br       -1.05371316480913   10.63455498103342   -0.26454620049541
C         1.09865919096964    8.76949396457007   -0.16444391779272
C         1.66517408850438    7.51034666553250   -0.12882247526391
N         0.59849286111639    4.02355829871703   -0.23399008899714
N         1.32754991704965    2.97470116604390   -0.15775843633862
N         3.18202691734923    1.00625419779645   -0.02672147213540
H         4.52235833017506   -2.00292378799984   -0.51084828198692
H         3.14760753810330   -1.79243758370747    0.57433143227483
H         2.96675989284709   -1.40386537625425   -1.12428500280870
H         6.13915095011731   -0.54393064737818    0.21308936208909
H         6.93060868481122    1.78050087333937    0.58481856627102
H         5.25196985295331    3.62338214444786    0.47117258187944
H         3.48196005377484    5.37988448579540    0.19611926954340
H        -1.15556731178774    5.64118523836729   -0.23343905553576
H        -2.17338202623942    7.89862972940204   -0.29593815615448
H         1.72620723676093    9.64632147348103   -0.14965519613576
H         2.73893610971970    7.42283490115446   -0.09313103647664
C         0.66376313598579   -1.08747039622863    0.04273978549100
C         0.34663406767323   -2.00204347304446   -0.95865458580505
C        -0.00912363866659   -3.30861808899106   -0.66801375641457
C        -0.06811713643246   -3.73825596558837    0.64806468620738
C         0.23241304135672   -2.85839357476803    1.66576929151338
C         0.59763093060286   -1.53954398606186    1.38073015001830
C         0.91430299466885   -0.58164241501547    2.43621146318279
N         1.08913044419691    0.69071161561518    2.02991525278554
C         1.36425985295475    1.63106180748199    2.92374607477581
C         1.49302331339623    1.38070554797740    4.27560591168216
C         1.33279324160720    0.07210173601717    4.71318779049954
C         1.04306953765307   -0.91085299384577    3.78940359519162
H         0.38048945787910   -1.69373307417964   -1.99394516872800
H        -0.24697238657491   -3.99120683049644   -1.46991142426559
H        -0.35309700928618   -4.75321832410254    0.87811335556736
H         0.16584368764446   -3.19934744494190    2.68745886445943
H         1.47962001343201    2.63862269227952    2.54453039590967
H         1.71256151844915    2.18138214645971    4.96262757079657
H         1.43248965873987   -0.17178769941322    5.75970020506480
H         0.92347461756834   -1.93100281774374    4.11305589073639
C         0.93982688565271    0.90160738640420   -2.17725645527979
C         1.97353044964749    0.80505620328574   -3.09984565048542
C         1.72564572157352    0.85765354035135   -4.46335136373523
C         0.43183988427320    1.01346067471041   -4.93556418792723
C        -0.61647914844358    1.11893023750426   -4.04412843140033
C        -0.37145491817126    1.06450157526113   -2.67173470768398
C        -1.40105381128907    1.15989670074953   -1.64966129359095
N        -0.94185406569651    1.05550541073622   -0.38069185486666
C        -1.80363463759408    1.13268565122345    0.63083303114391
C        -3.16016950859482    1.31473957620812    0.45170701805655
C        -3.65052701465947    1.42197130209560   -0.84339433393157
C        -2.76207612448270    1.34452266025692   -1.89594908428234
H         2.99510617738913    0.68280743413452   -2.76556923903541
H         2.54634171000979    0.77467716463934   -5.16046848510930
H         0.24478950189268    1.05110806834101   -5.99760799803595
H        -1.62099144953197    1.23980064398431   -4.41915826125370
H        -1.39719157513022    1.03903933607450    1.62819181036313
H        -3.81628391477502    1.36722260007015    1.30491431621767
H        -4.70514238534021    1.56172975146172   -1.02235673362682
H        -3.11459550245388    1.42548257115953   -2.91067240094276
