84
 energy: -146.940394969088 gnorm: 0.000856003380 xtb: 6.4.1 (afa7bdf)
Ir        1.05629822112506    2.23236990645204   -0.39793253989752
C         0.81024489246210   14.59597193008424    0.90169296270296
C         1.35883194148280   13.29503526949304    1.40320445459665
O         0.71550874312509   12.40561040699676    1.90158674628727
O         2.68049040475880   13.21457054034595    1.20383595828439
C         3.33970845357251   12.03227599639069    1.65097068573483
C         2.66425838850211   10.78032726475499    1.14832089027333
C         2.39347228900526   10.63532227057891   -0.16056866740972
C         2.88605883521596   11.56360774212538   -1.22639077052126
O         3.97080494712105   12.07394964201126   -1.23246101852893
O         1.96934754623420   11.72970608461318   -2.17559541977542
N         1.62139745274918    9.56810916810482   -0.60484640119896
C         1.60592145330133    8.76611249299510   -1.70871769942901
O         2.12094760768479    8.81340425339919   -2.78106294272370
C         0.69425203522742    7.73930461886808   -0.97722082275238
N         1.24444956711260    6.43359896957524   -0.84979096267636
C         2.54728533964273    6.08990803242423   -0.76914070513765
C         2.53017447080506    4.71759949294991   -0.61228816220945
C         3.54882694099841    3.69986011980901   -0.46724853956058
C         4.90660691905199    4.00127054558756   -0.44213798904448
C         5.82293449688419    2.97417230444154   -0.31121890795625
C         5.34551343212243    1.67418353909236   -0.21067325818769
C         3.98132056957718    1.45173407964011   -0.24245875197430
N         3.08609462965440    2.43410476770328   -0.36400945887758
N         1.22346155472705    4.34105280589415   -0.60919604758810
N         0.46966847010275    5.36383603270405   -0.74756214226646
C         0.85432736641937    8.68476910054851    0.23634979629465
S         1.90336664976717    8.11964233556595    1.61913089542361
C         2.22712567955298    9.81357097812365    2.20478570101178
H         0.03191730807860   14.94744711377646    1.57253202430431
H         0.36322417555617   14.43071368410050   -0.07685210047460
H         1.60439467042244   15.32879039984033    0.81105724977284
H         3.35759680643023   12.02905823443816    2.74593501352963
H         4.35547138358891   12.11966158337745    1.25933462508586
H         2.31481237417893   12.27945899375649   -2.89787155580431
H        -0.32569066563396    7.65086422925224   -1.35483664040860
H         3.34252164396029    6.79974088696866   -0.83944769171395
H         5.22658939125894    5.02686818683141   -0.52852906656751
H         6.88126039958789    3.17992156389964   -0.29269319726689
H         6.02128188051695    0.84057282164416   -0.11292071390754
H         3.58366956673110    0.44895808448216   -0.17643633998571
H        -0.05821725468891    9.12738037054729    0.64001278026788
H         3.00938535265088    9.70420757786613    2.95699202508014
H         1.32029087847473   10.18193097512402    2.69205598723532
C         1.05541437436358    0.23794675717398   -0.04088148290800
C         0.97942798258531   -0.79708998114726   -0.96668441039841
C         0.99409657563073   -2.12585121706549   -0.57335007889935
C         1.08372712262871   -2.45287594353263    0.76996405002931
C         1.15947350903319   -1.45003190148251    1.71381699697956
C         1.14778961692080   -0.10741435585452    1.32697460202366
C         1.22638643105293    0.98126346924728    2.29884614876345
N         1.14054911915342    2.22298669119518    1.78480354037324
C         1.19040099493401    3.27614229988025    2.58891976859310
C         1.33470278317483    3.17427149899686    3.95884575381161
C         1.43411452212387    1.90351380643900    4.51038610300488
C         1.37874081028598    0.80437632239954    3.67737283808005
H         0.90891203187212   -0.56670063500949   -2.01960435567854
H         0.93346069759262   -2.90659195742836   -1.31651645035366
H         1.09234667094607   -3.48658854120829    1.07958241564587
H         1.22280352636634   -1.71984421863723    2.75663530171872
H         1.10268821140311    4.24747790583310    2.11927785979603
H         1.36814181056068    4.05976454999539    4.57184794693035
H         1.55129821151502    1.77617095516834    5.57564370599294
H         1.45549650767131   -0.18601293319719    4.09322521742783
C         0.89755547809500    2.06443051798244   -2.41139518347620
C         1.91189981107331    2.01860704657615   -3.35918637979592
C         1.62626116934947    1.95495261306128   -4.71464360459248
C         0.31185805202871    1.93774867873855   -5.15378600981019
C        -0.71871370042369    1.98138504060102   -4.23701028267541
C        -0.43557234808649    2.04417261181199   -2.87220526511060
C        -1.44730159164941    2.08863041162309   -1.82770785556001
N        -0.95179857288006    2.14674521551831   -0.56831823844809
C        -1.80048486183799    2.19137092961060    0.45782995598191
C        -3.17222511276761    2.17764782697966    0.30459087892213
C        -3.69680039935432    2.11389176407660   -0.97971485977135
C        -2.82508984231029    2.07111804578717   -2.04806140088741
H         2.94910322383861    2.02318810391941   -3.05109115809451
H         2.43356817222273    1.91757120281907   -5.43105594775654
H         0.09496629704340    1.88819103224279   -6.20966662420258
H        -1.73931736997718    1.96621755778823   -4.58689947180117
H        -1.36860385552061    2.23472201562461    1.44809388074041
H        -3.81347607943190    2.21218651207083    1.16990070309969
H        -4.76372169148886    2.09669035811912   -1.13844837277453
H        -3.20440449683533    2.02154754610167   -3.05510351695357
