68
 energy: -109.289517573204 gnorm: 0.000378335265 xtb: 6.4.1 (afa7bdf)
Ir        0.60216357061601    1.02299099433261   -0.10565333799628
C        -0.56042393611552    9.08224517637606   -0.65617273067236
C        -1.34989520652229    7.97606619390420   -0.92885903115133
C        -0.82998709026251    6.70223531329191   -0.80084313266283
C         0.49063788511657    6.54040205181971   -0.39463438538098
N         0.99481832692912    5.23417384755227   -0.26976075595928
C         2.28051490553284    4.81790524474948   -0.23490766675928
C         2.20087445480717    3.44283001847710   -0.11538066593938
C         3.16695364665188    2.36805841602541   -0.03868514148701
C         4.53857357263771    2.59469020360125    0.01255768534903
C         5.39967617416788    1.51483201461915    0.07696434179585
C         4.85512179738429    0.23771318031314    0.08717176591241
C         3.48161552697692    0.08959085049591    0.03314897675723
N         2.63906742794375    1.12282121428652   -0.02601644649353
N         0.87794497926914    3.13056037687273   -0.08473774764940
N         0.17415535153056    4.19530526296183   -0.17567911193586
C         1.28522005876939    7.64473734964791   -0.11006686719464
C         0.75219664265513    8.91392913844936   -0.24630211515271
H        -0.96794288119995   10.07536835318508   -0.76015353184750
H        -2.37274277983825    8.10500994766400   -1.24577533564689
H        -1.42543341684972    5.82816056809572   -1.01151237680998
H         3.11649092770023    5.47718340407349   -0.31878855923515
H         4.91357306472434    3.60531370388028   -0.00069611588413
H         6.46699434403227    1.66348377067105    0.11478896897239
H         5.48583251788434   -0.63480146155632    0.13185104357855
H         3.03304620583579   -0.89368167395243    0.02684042511244
H         2.30231218336822    7.52455048509730    0.22906647784440
H         1.36543766504343    9.77365666669037   -0.02630477648783
C         0.50114609238948   -0.99880340190099   -0.01834578492049
C         0.40049430471125   -1.89604347960501   -1.07565904879483
C         0.34977597224772   -3.26472896882501   -0.86394289791869
C         0.39663794283058   -3.77190324476698    0.42450511726874
C         0.49643597485007   -2.90866933250949    1.49549020273647
C         0.55126587497524   -1.52736316632255    1.29162489880908
C         0.65594215044429   -0.58187105230267    2.40046001500709
N         0.63464673672688    0.71919918060440    2.05385140041471
C         0.70448801101310    1.65366011419513    2.99211957470359
C         0.80960291083552    1.36651156266193    4.33890593119489
C         0.84718417136417    0.03077256394130    4.71835224496832
C         0.76862470396618   -0.94536987792695    3.74598124533943
H         0.36252459007033   -1.52463097262945   -2.08919870016115
H         0.27126726940865   -3.93571140710330   -1.70606534673568
H         0.35335290698691   -4.83698088744274    0.59259624878972
H         0.52594361952967   -3.31717901474458    2.49373362569062
H         0.66368939252888    2.67988043077194    2.65042280988341
H         0.85993671916487    2.15988958696518    5.06635697799134
H         0.93357768429024   -0.24046651850822    5.75929025908011
H         0.79581447432847   -1.98436146746996    4.02805324132042
C         0.47529026765095    1.12846085065468   -2.12536071672863
C         1.50367405114056    1.15221064630544   -3.05918594859598
C         1.24084310248732    1.27810984394202   -4.41489910128925
C        -0.06428682462551    1.38726700568664   -4.86833676341810
C        -1.10837004609427    1.36662953470296   -3.96596249732336
C        -0.84821771059541    1.23753979939462   -2.60128000784494
C        -1.87663306887883    1.19681877313600   -1.57261417917611
N        -1.40399894487436    1.06078980150085   -0.31047080604620
C        -2.27015164839888    1.01406224741306    0.70098623736885
C        -3.63743826289802    1.09483086865746    0.52931507472471
C        -4.13857963909047    1.23000092512128   -0.75868444035196
C        -3.24862124736263    1.28246351998603   -1.81157811488045
H         2.53403543186834    1.06124542048754   -2.74097579042140
H         2.05850889006728    1.28883848177782   -5.12057643162268
H        -0.26371819476276    1.48440640202815   -5.92439966219007
H        -2.12172275977409    1.44925522985494   -4.32738694235755
H        -1.85732226304009    0.90282838346879    1.69401048713982
H        -4.29323561792205    1.04916664343452    1.38311652766287
H        -5.20148671816888    1.29094443517837   -0.93255839987564
H        -3.60974621818065    1.38655892856542   -2.82116639241290
