79
 energy: -126.929003302366 gnorm: 0.000834605366 xtb: 6.4.1 (afa7bdf)
Ir        1.01855130722599    1.13157636217328    0.06776916144328
C        -3.39943758525729    6.93426464064780   -0.00688267656338
O        -2.57083712176577    8.07403343789713    0.02403470915606
C        -1.23207650668355    7.90484903579946    0.06992535365666
C        -0.45608029308824    9.06740529015051    0.08802317294154
C         0.91758937685828    8.99905346685591    0.13087477071951
C         1.58619647033343    7.77518370583515    0.16134361301351
O         2.94324500018661    7.65294428461748    0.19889805945739
C         3.73278291623371    8.82403937170293    0.13854125609473
C         0.80744545413876    6.60904662409599    0.14942674371883
N         1.36678693774591    5.32064458085170    0.17525314930542
C         2.64660058386026    4.92638927914819    0.35427349694774
C         2.60226030690724    3.54420065383470    0.29081625094972
C         3.59769506106177    2.49817934029288    0.38078629882132
C         4.93222196055948    2.81099981105393    0.60937504905363
C         5.85941594221342    1.78711132646459    0.65508298632438
C         5.41413397803945    0.49722369800724    0.43541523418630
C         4.06346464451702    0.24485589257753    0.20139191917693
C         3.63106453535510   -1.15097474882931   -0.08392825015456
N         3.15540786760362    1.23099947636241    0.20589722573507
N         1.30937296170299    3.20490148565073    0.07885899953667
N         0.58192251461089    4.25671186385580    0.01389050452850
C        -0.58490886671370    6.67945504876554    0.10300325725740
H        -3.27850619356212    6.32705964386143    0.89558556379625
H        -4.41772272802080    7.31544108719936   -0.05124913978304
H        -3.20207264210195    6.31960401668649   -0.89044930469922
H        -0.95645724400432   10.02133946414435    0.06576441384677
H         1.47849808167902    9.91824960092207    0.14089922010241
H         3.56550128397337    9.46364372897775    1.00893732927948
H         3.54226637805074    9.38647847471209   -0.77861027768760
H         4.76514840646316    8.47800116968452    0.13998859152653
H         3.44784402514813    5.61287114844959    0.50754184589154
H         5.22411045787549    3.83943744260110    0.74314920113573
H         6.90213834015498    1.99132979577195    0.83962973405784
H         6.10865209932557   -0.32712264766810    0.43683236094322
H         3.11664995406857   -1.57528033371588    0.77508028748054
H         2.93530636429426   -1.16542374720725   -0.91822006204055
H         4.49017953869695   -1.77431616733446   -0.31304180061162
H        -1.12598189403043    5.74842688035639    0.08839178971448
C         0.63117337480522   -0.85352343159489    0.26115320163463
C         0.30813821999441   -1.76513956614247   -0.74151494334018
C        -0.04923443199523   -3.07166993400524   -0.45352066488318
C        -0.10383049882668   -3.50549398795192    0.86148907020428
C         0.20222390129612   -2.62931772296097    1.88069743680208
C         0.56882868068405   -1.31037365094795    1.59786166295918
C         0.89142597779166   -0.35620846805842    2.65478566951864
N         1.05905584228239    0.91834251225461    2.25241615545880
C         1.33915599623417    1.85571430246826    3.14767012753052
C         1.48173498645294    1.59959801163617    4.49695199729895
C         1.32918402416060    0.28874575496866    4.93049188141150
C         1.03322028754806   -0.69100047668697    4.00530319004088
H         0.33878210986256   -1.45360510484255   -1.77600882478239
H        -0.29202807913411   -3.75160880709398   -1.25625085286561
H        -0.38961849272780   -4.52075540252012    1.08953907037268
H         0.13876503219984   -2.97315503609111    2.90170685167547
H         1.44798343123237    2.86516744976016    2.77195611022028
H         1.70589440566471    2.39790888739064    5.18532489265714
H         1.44003146824056    0.04036945479734    5.97481747462162
H         0.91970005503135   -1.71296576626818    4.32543639366154
C         0.91973932991718    1.14688986003199   -1.95321553539192
C         1.95438820501503    1.04455886098044   -2.87451165618584
C         1.71051842107295    1.10830632514449   -4.23800057405734
C         0.41947808543088    1.28044019606497   -4.71276405598661
C        -0.62952006813990    1.39368944030048   -3.82333237338789
C        -0.38808494005303    1.32988775777049   -2.45062165719709
C        -1.41738071435644    1.43832436056293   -1.43020202660838
N        -0.96296095114014    1.31094075565360   -0.16122385813548
C        -1.82460461784987    1.40066293953885    0.84926793338976
C        -3.17537848728400    1.62145752755111    0.66985273792338
C        -3.66047768052342    1.75451452195247   -0.62495243114653
C        -2.77270713730533    1.66146397553350   -1.67674567184867
H         2.97361173937268    0.90996256389130   -2.53816533266370
H         2.53206998164109    1.02127271697882   -4.93374150448310
H         0.23556349203853    1.32552173195106   -5.77514977764219
H        -1.63190292058036    1.52739453814700   -4.20016904753553
H        -1.42260436723317    1.28559748293364    1.84621026925997
H        -3.83166279762006    1.68297329667585    1.52238425522288
H        -4.71059413359766    1.92519854469768   -0.80402510412570
H        -3.12096740325665    1.76074010027270   -2.69140752785515
