68
 energy: -112.864051032075 gnorm: 0.000276459004 xtb: 6.4.1 (afa7bdf)
Ir        0.82726404763283    1.06706737190791   -0.20132211040674
Br       -1.07529134158926   10.88553526611247   -0.48268454394749
C        -0.34421136654661    9.13663925642266   -0.42928918063917
C         1.02729626329910    8.97138760789517   -0.29572154203633
C         1.56368435140073    7.69948350769945   -0.24846751368875
C         0.72406950306504    6.59313176229461   -0.33704570363391
N         1.22827042688263    5.28536294661339   -0.27491544647106
C         2.51161502960196    4.86329016377513   -0.18804186178459
C         2.42615812182095    3.48522861135726   -0.13497780312057
C         3.38864803905069    2.40950306187498   -0.02884206254005
C         4.75675912409308    2.63669145730564    0.07979581478144
C         5.61470688034714    1.55678661673387    0.17748437437755
C         5.07049071102936    0.27960807465399    0.16095425204709
C         3.70039661186252    0.13120648543896    0.04866729352704
N         2.86090436183957    1.16455813738016   -0.04161660909857
N         1.10392120838830    3.17326463013500   -0.19501426841020
N         0.40486371605562    4.24086049055500   -0.27523897141634
C        -0.65177411752364    6.76506099516960   -0.47613034598951
C        -1.18602370373444    8.03585811084603   -0.52143507514074
H         1.67118563052700    9.83360797248769   -0.22618570417130
H         2.63014344090981    7.58762848436875   -0.13926132890552
H         3.35418305786178    5.51869746532327   -0.17795171738994
H         5.13208807977526    3.64722923732307    0.08444968927095
H         6.67939115369137    1.70582696840731    0.26036717465939
H         5.69928186199221   -0.59268056854373    0.22970786799095
H         3.25227876329322   -0.85191241747310    0.02144130373186
H        -1.28578711762727    5.89600756134809   -0.54654931272959
H        -2.24988386664104    8.17610696583561   -0.62722041196969
C         0.71638174878297   -0.95163938411287   -0.05812832059770
C         0.62823383681689   -1.87967861450638   -1.08969250797917
C         0.56353208453657   -3.24105621838635   -0.83789536098021
C         0.58398784395607   -3.70969185427255    0.46571321949477
C         0.67027509980830   -2.81522638448815    1.51193099555901
C         0.73810935731449   -1.44101319479533    1.26781538413371
C         0.82308782404185   -0.46448759542326    2.35111956212042
N         0.78458321629893    0.82634263313972    1.96980963052933
C         0.83200254586982    1.78588209984168    2.88395259880679
C         0.93415275056162    1.53651560675853    4.23833760010849
C         0.99346788082280    0.21207238900927    4.65300625689540
C         0.93492104632886   -0.79038351927034    3.70638568206751
H         0.61043801592806   -1.53911353846236   -2.11454319551851
H         0.49412095278750   -3.93638152750557   -1.66078794103644
H         0.52995991093402   -4.76885820148993    0.66488627524839
H         0.67659525536596   -3.19334623443446    2.52245366498864
H         0.77511273687815    2.80230554372576    2.51585650146435
H         0.96689523354034    2.34964059639181    4.94470556980799
H         1.08090545658416   -0.02994160826292    5.70100582101440
H         0.97945695489648   -1.82093211072687    4.01563491088362
C         0.78397346187208    1.10467764230636   -2.22741333426023
C         1.84984889200181    1.08219447783793   -3.11774048265831
C         1.64349265796471    1.15380287286099   -4.48720298742887
C         0.35904009645478    1.25396327377971   -4.99799774272184
C        -0.72117585162041    1.27926419336110   -4.13938037538692
C        -0.51807239011677    1.20443262886891   -2.76100225014134
C        -1.58755882948127    1.20919513916825   -1.77434819318549
N        -1.16767963762240    1.10658145527553   -0.49048788454761
C        -2.07381379076006    1.09689882969309    0.48640886309707
C        -3.43207450015584    1.18739011244751    0.25731387488947
C        -3.87938278558821    1.29352240946573   -1.05319284993948
C        -2.94766420229180    1.30510247954524   -2.07065613668350
H         2.86530287797617    0.99611913942370   -2.75391464985036
H         2.48919832327110    1.12831922115382   -5.15844319152735
H         0.20379990106508    1.30800487395399   -6.06446277259948
H        -1.71813542103815    1.35374110395878   -4.54524721886878
H        -1.70138254241975    1.00789804908962    1.49757669355245
H        -4.12239370610683    1.17155478239997    1.08456978404371
H        -4.93355317401662    1.36352703516909   -1.27125833952454
H        -3.26662700220510    1.38609417427547   -3.09641541016392
