78
 energy: -129.976914127786 gnorm: 0.000236399037 xtb: 6.4.1 (afa7bdf)
Ir        0.64115545279601    0.70689454500970   -0.29872810878233
C        -2.01424053543301   11.65807662585898    1.54964659567094
O        -1.56794627535970   10.33487223449768    1.27610710903215
C        -0.31261525228391   10.22185944455125    0.83851849238034
O         0.43091228784241   11.15458438707270    0.67136144543993
C         0.07591444341333    8.80452775489261    0.58368707427345
C        -0.81178485252913    7.74695243328980    0.76029039307184
C        -0.39639801335798    6.45169571675221    0.52670007602518
C         0.91159334722065    6.20762706264127    0.11388419055436
N         1.31146988671208    4.87760923443172   -0.08904706927711
C         2.55419093616119    4.38825234522187   -0.31021979523116
C         2.38241209497008    3.02101282554440   -0.40134648995147
C         3.26286193019361    1.89315526013288   -0.60530114466506
N         2.66616856700010    0.68564127227547   -0.58989843660347
C         3.41704288340881   -0.40020964407884   -0.78142245305536
C         4.78050003063836   -0.32886240623931   -0.99054232843240
C         5.41388781194702    0.90363454701196   -1.00975704817904
C         4.64860132266271    2.04971057512012   -0.81402363810172
O         5.12096965015843    3.31112905727796   -0.80737711415086
C         6.49970769679571    3.52205879079742   -1.05678112126664
N         1.05293407822162    2.78221337414562   -0.23372874613422
N         0.42986145525652    3.88315204993239   -0.04691358290104
C         1.80027924569516    7.26113335502937   -0.07993955590291
C         1.37713602449341    8.55306715572557    0.15719080809369
H        -1.94313320312975   12.27443656925813    0.65172702551847
H        -3.04753360558225   11.56896770076519    1.87363550541226
H        -1.40244655428610   12.10850039033170    2.33344342381925
H        -1.82067930096429    7.94588997620811    1.08326281984092
H        -1.06772371333460    5.61818721652060    0.65900365346902
H         3.43573261206967    4.98463071650633   -0.37407271266525
H         2.90292491488432   -1.34945407458175   -0.77520315747219
H         5.34743762538680   -1.23247409575602   -1.14275960973041
H         6.47641830689587    0.96234708039566   -1.17704821727898
H         6.63955514507726    4.60073569062769   -1.02799213487187
H         6.78642865549235    3.14677879821536   -2.04199852782447
H         7.11929951854205    3.05685072101241   -0.28619338832973
H         2.80860564687966    7.08509427552754   -0.41813451660626
H         2.04499653133219    9.38918474399458    0.01790330253622
C         0.43930657135435   -1.30808660247145   -0.20985753059417
C         0.08503200553335   -2.18066995714657   -1.23343357230273
C        -0.00058988817994   -3.54823468354931   -1.02607784890923
C         0.26681786925200   -4.08074343986242    0.22470605991022
C         0.62000633003226   -3.24326214725169    1.26188349092655
C         0.71163421928276   -1.86335987317154    1.06141589535139
C         1.07820644491532   -0.94733033952738    2.13872588088339
N         1.04688278339319    0.36085107643670    1.82186745095287
C         1.34104861240455    1.26932124503747    2.74174060392079
C         1.69829836257047    0.94813968968342    4.03648205213468
C         1.75314580569407   -0.39635032934011    4.38106015507601
C         1.43997153337542   -1.34557195644862    3.42966152425003
H        -0.12794615214860   -1.78986161021815   -2.21762147257860
H        -0.27880088809939   -4.19867911121258   -1.84163842487199
H         0.19740278005293   -5.14483156814584    0.39042848572855
H         0.81812467848496   -3.67091384878925    2.23253215083679
H         1.27767097208758    2.30441633486265    2.43208546495676
H         1.92560397464689    1.72236328441535    4.75079840365983
H         2.03319429529287   -0.69454940874337    5.37971161300197
H         1.47798716377514   -2.39093405007180    3.68545166811706
C         0.16637809806204    0.84566220426129   -2.26328912958212
C         1.01356897639611    0.81507177614397   -3.36362923247587
C         0.52281125965775    0.95923414077633   -4.65243011130220
C        -0.83402511649808    1.14044054385310   -4.86977188481449
C        -1.70203319304308    1.17552566444688   -3.79754511767837
C        -1.21231810558970    1.02925921564853   -2.49917313026581
C        -2.04226066559963    1.04205311729278   -1.30450752786578
N        -1.36151192919552    0.86592660073562   -0.14617197498611
C        -2.03517386463865    0.86263650217636    1.00369648945930
C        -3.40343894014260    1.02882050176278    1.07813959947649
C        -4.11650296730572    1.20755235043492   -0.10019183705099
C        -3.42682535830107    1.21469034448723   -1.29493119826149
H         2.07697594869565    0.66668047314003   -3.23064810173513
H         1.20227399924056    0.92727766552487   -5.49144025124972
H        -1.21083268465361    1.25040801460232   -5.87495003080746
H        -2.75726905603289    1.31394927332937   -3.97517936288262
H        -1.45939429048436    0.71551565198218    1.90699085634884
H        -3.89864877015172    1.01467480424189    2.03512385793226
H        -5.18735694821540    1.33672235810015   -0.08165862642730
H        -3.95429166178402    1.35188638661555   -2.22413435397978
