74
 energy: -112.340619179770 gnorm: 0.000258281928 xtb: 6.4.1 (afa7bdf)
Ir        1.02865354933058    1.05951543985097    0.05776278122611
C         1.39159569261953    8.76216616674714   -3.01043771587709
C         2.35818537530999    8.33664311788863   -2.22076640465988
C         2.20724414114076    7.54486515864443   -0.95416691652789
C         0.76279840648209    7.24502668230743   -0.56432925275382
C         0.65467884295982    6.52812853869008    0.78519592937149
N         1.21689918047108    5.20575827325016    0.72670770019518
C         2.48147413703663    4.82202449341971    0.98505187807497
C         2.49481345489822    3.46233309436467    0.72181606388202
C         3.51440597404608    2.43583547986790    0.76826513205290
C         4.80117613393605    2.73236566417196    1.19893681579840
C         5.75588126546863    1.73185957573939    1.18670515210098
C         5.39094708023158    0.49261471092051    0.69713438176632
C         4.08518558153218    0.25681236259651    0.26785156917049
C         3.75032724812292   -1.07301000115557   -0.31152217877915
N         3.14198803254474    1.20578901405003    0.34388947853888
N         1.24169477179439    3.13484787784842    0.32204627786729
N         0.49149072639614    4.17518234026123    0.33019035108380
H         0.34922723983370    8.57502403203961   -2.81999135081958
H         1.61070544738124    9.32840346105663   -3.89861228171379
H         3.38807607325125    8.55837362042014   -2.46926421588809
H         2.76439748330841    6.60936033196596   -1.07864965206712
H         2.69260192350745    8.10614364798190   -0.14818431657724
H         0.29062217159116    6.62881813232029   -1.33124568417587
H         0.20958472371985    8.18076474334540   -0.48476200406753
H         1.17608032371800    7.09345700714009    1.56121673518280
H        -0.39686702089598    6.41741582544411    1.05848870765770
H         3.23460688201744    5.49849147349186    1.32806152139642
H         5.03933224049132    3.72852185556538    1.53347429715663
H         6.76077153359012    1.92136906421092    1.52891731558720
H         6.11361614868049   -0.30501359836336    0.63670021266152
H         4.65170363072734   -1.56591711739046   -0.66523645433888
H         3.04493142423244   -0.96271544660609   -1.12996726182825
H         3.28607874244718   -1.71027636033388    0.43895538337698
C         0.74133341952495   -0.95126805965017    0.02932542345323
C         0.48658590413531   -1.76499281740174   -1.07210712355138
C         0.20949689308542   -3.11480254172210   -0.93407389830461
C         0.17116581257231   -3.69293161971685    0.32474488197656
C         0.40860683861069   -2.91582527825735    1.43829063095187
C         0.69120901812535   -1.55314705851496    1.30700536559271
C         0.92130916275452   -0.70054403243619    2.46943494562261
N         0.98036660407161    0.62062952754473    2.21621821429881
C         1.15111452469874    1.47118905586259    3.21901271760143
C         1.29232211280702    1.07786396502029    4.53496450331037
C         1.26170604491851   -0.28250118836171    4.81384096387457
C         1.07330798912978   -1.17298424969265    3.77710538982563
H         0.50801273133904   -1.34087048295674   -2.06603505976126
H         0.01737497496168   -3.71603289250038   -1.80992570729901
H        -0.05061142826855   -4.74300250004242    0.43657239604403
H         0.35466808080231   -3.37218797554071    2.41473811993216
H         1.16567544004745    2.52289628277379    2.96282713364220
H         1.42376673413296    1.80976832708460    5.31494389172136
H         1.38051025832208   -0.63722757474997    5.82604659005846
H         1.05161268784074   -2.23095647781426    3.97749166699172
C         1.02217641844290    1.28674126900786   -1.95371286150947
C         2.10429766399537    1.36500268652298   -2.82099779297613
C         1.92094714709136    1.55607289496828   -4.18232577519270
C         0.64422970814542    1.67629869061550   -4.70840192583240
C        -0.45157232815679    1.61231231866719   -3.87182322321395
C        -0.27128813413705    1.42155494944615   -2.50164473806325
C        -1.35376374354138    1.34663485583774   -1.53391656572091
N        -0.94839004634964    1.15099373197618   -0.25733305587048
C        -1.86033527445821    1.07754884278154    0.70964205730501
C        -3.21617291979977    1.18750719432928    0.47553744312072
C        -3.65145858610088    1.38216470722128   -0.82898872043811
C        -2.71111551784468    1.46316832034140   -1.83517741862247
H         3.11433411458372    1.27598169638789   -2.44404831884094
H         2.77892498969453    1.60985566409516   -4.83615234329401
H         0.50760081071526    1.82046193916870   -5.76905833406398
H        -1.44263965874331    1.70944826518719   -4.28744976206519
H        -1.49547522280773    0.91705408472285    1.71459171331240
H        -3.91398508003470    1.11807870573464    1.29371405275766
H        -4.70373260857625    1.46755191767693   -1.05069683491180
H        -3.02036909764903    1.61519819464580   -2.85585063592235
