75
 energy: -120.792474465771 gnorm: 0.000504019339 xtb: 6.4.1 (afa7bdf)
Ir        0.61974772266086    1.07031051753208    0.43215108875270
C         5.86338597498431    4.93049059869548    1.01800755660212
O         4.54154324565707    4.44511102675911    0.87714115275833
C         4.31285929590198    3.12524905657381    0.95313943780063
C         5.26660023177487    2.14656881651622    1.21940160100980
C         4.86191276638826    0.82174948038121    1.26343246138938
C         3.53780986731414    0.49593271710937    1.04187133952517
N         2.60824729272261    1.41837703084771    0.78546003055863
C         2.98051047043069    2.71061391684718    0.74256405226347
C         1.93062561340511    3.65767234478515    0.44501813731534
C         1.89270060249316    5.01746914705919    0.19454818866795
N         0.59332731653293    5.27402201273740   -0.05085746157318
C         0.00258579156669    6.53387472172254   -0.40395086501200
C         0.63812429647603    7.12670587493847   -1.68746984362648
N         1.20453351308391    8.43505939820580   -1.47309037348007
C         2.45123384199929    8.60753650182107   -0.96071865337230
C         2.88072681813308   10.04788694849293   -0.86362229470662
O         3.13813344099395    7.66578152337366   -0.62174001095571
N        -0.13289890373455    4.17064599557114    0.04066598303642
N         0.65319231091877    3.20214018289889    0.33668736163885
H         6.25900790980402    4.72628439494493    2.01644800387636
H         6.52610638015719    4.50362567664613    0.26128248187157
H         5.78709490712374    6.00548998325490    0.86731558570625
H         6.29941465308796    2.40465900629704    1.38557145253081
H         5.57817749535201    0.04201362550050    1.46425407272597
H         3.20770543110495   -0.53174505072802    1.05644268826685
H         2.65170853984673    5.77251747920071    0.15327980016780
H        -1.06564004524519    6.35123235812803   -0.53065032208101
H         0.14912041924025    7.23797471699141    0.42144450698636
H         1.44788042334385    6.46651076989195   -2.01474198785298
H        -0.10311958573614    7.19088179607289   -2.48330762255974
H         0.65113253024666    9.24255206449016   -1.70670406753988
H         2.94035411824539   10.48239567145939   -1.85914663155708
H         3.85842415895105   10.10327934082282   -0.39428993932976
H         2.16602085762645   10.62096363707749   -0.27723571196545
C         0.73035031842615   -0.94248826369083    0.62867842302850
C         0.85821329294707   -1.89375322184734   -0.37746847219437
C         0.92345482812683   -3.24815300837453   -0.09187498409176
C         0.85784678464457   -3.68710505020815    1.22073506829635
C         0.73062106281135   -2.76948066838935    2.24243335986247
C         0.66829433561699   -1.40171289123603    1.96388126886056
C         0.53512156497730   -0.39804853718473    3.01691395434111
N         0.40075357973769    0.87165840202441    2.58924435856529
C         0.25951099471414    1.85306847192080    3.46911207274128
C         0.24852991407078    1.64761674801547    4.83506771270707
C         0.39807570016464    0.34707792907106    5.29911344350221
C         0.54052496435116   -0.67846770009039    4.38658810858923
H         0.91038495101262   -1.57578915525779   -1.40841503207857
H         1.02258902701937   -3.96254858011691   -0.89537616006688
H         0.90368704678735   -4.74169434089007    1.44539422564941
H         0.67309738328315   -3.12519435014367    3.25964346331483
H         0.14066362952802    2.84802660135333    3.06034640817272
H         0.12783809792549    2.47631491302146    5.51333237794404
H         0.40129343469825    0.14046613091557    6.35839781836994
H         0.65915013016835   -1.69111594343529    4.73342832175333
C         0.76557869647897    1.08696208245005   -1.58643776683560
C         1.90527858306812    1.20429924281235   -2.37246471026794
C         1.82182275418796    1.26660127355520   -3.75495360905904
C         0.58861763425836    1.21456535384519   -4.38582546706379
C        -0.56261931925671    1.09746915596959   -3.63378810324283
C        -0.48250983592049    1.03439002258984   -2.24233396365322
C        -1.63231462204544    0.90712868384045   -1.35997690061420
N        -1.32451298264918    0.86201156692333   -0.04125507787824
C        -2.31059903108480    0.74153701120967    0.84704625292305
C        -3.64193615450822    0.65973374772759    0.49177068986051
C        -3.97427209699250    0.70435324867694   -0.85581344778994
C        -2.95975008187042    0.82972541769387   -1.78231451510566
H         2.88376909191048    1.23939248499303   -1.91212264540047
H         2.72354169248908    1.35415449370647   -4.34322995570641
H         0.52926251360067    1.26183295475582   -5.46243469773275
H        -1.51869669795720    1.05478759351267   -4.13244468790810
H        -2.02691896409796    0.70337631541870    1.88968877293430
H        -4.39940334119889    0.56014956017290    1.25173421018328
H        -5.00385481213067    0.64029615754317   -1.17155196396961
H        -3.18864177013655    0.86542586422694   -2.83442434879341
