76
 energy: -123.757385803028 gnorm: 0.000314830857 xtb: 6.4.1 (afa7bdf)
Ir        0.71548384976182    1.06139026531489   -0.16632484539667
C        -3.61224151438982    7.02344945652814   -0.29211111391232
O        -2.75240248255651    8.14051702886119   -0.28654340392918
C        -1.41875617213400    7.93639150918494   -0.24889458367312
C        -0.61327213488161    9.07900382717108   -0.24150965854800
C         0.75802880978847    8.97564321534086   -0.20220338571042
C         1.39573270133879    7.73534099115162   -0.16657096056044
O         2.74950660206206    7.58214989548136   -0.12273987586812
C         3.56521700784053    8.73684069595164   -0.13436788440222
C         0.58800939433778    6.58868520840087   -0.17461367439885
N         1.11341261948768    5.28583284856234   -0.13827575019261
C         2.39489645612302    4.86128941775574   -0.08102178306926
C         2.30953746487015    3.48054985254952   -0.05925422502893
C         3.27506294261955    2.40533497953186    0.00026082716561
C         4.64417352478120    2.63447753678586    0.09619556794063
C         5.50734640622132    1.55589979042673    0.14383226682341
C         4.96855724222921    0.27723695306613    0.09088097229299
C         3.59766090921905    0.12677826122064   -0.00414983624394
N         2.75304829637102    1.15899737516410   -0.04501058796722
N         0.98912877274385    3.16949062847326   -0.10579401421995
N         0.28909083480345    4.23997996563821   -0.14966053639275
C        -0.80257276724990    6.69512516229956   -0.21600732377503
H        -3.44524629664889    6.39387448211934   -1.17123984843796
H        -4.62028794099721    7.43193394283314   -0.32612621559929
H        -3.49422469438286    6.42378403719906    0.61559215179990
H        -1.08960880104771   10.04504802501870   -0.26771886957116
H         1.34198311059049    9.88035380287762   -0.19848254740483
H         4.58935791754018    8.36853075033643   -0.10465163976403
H         3.41817699264593    9.31981621961733   -1.04677204829717
H         3.38198147017667    9.36383217109464    0.74172245419413
H         3.22706139740566    5.52748475863493   -0.06445262752590
H         5.01267381574754    3.64692183498285    0.12969743693632
H         6.57266734465474    1.70615647021757    0.21651690931842
H         5.60187702434806   -0.59405023704471    0.11881539903678
H         3.15299596363990   -0.85680138516070   -0.05792081944889
H        -1.36766844427797    5.77850703501444   -0.22388842920219
C         0.61300450978030   -0.96027075929692   -0.07258327353125
C         0.50829948710100   -1.86305017166509   -1.12517928776630
C         0.45357936108186   -3.23047613376398   -0.90682155357685
C         0.50005463980274   -3.73195094778226    0.38391774268177
C         0.60311834011274   -2.86378685901186    1.45047712551515
C         0.66224587167504   -1.48370524562440    1.23961327157531
C         0.76837570395052   -0.53444485156238    2.34493333738390
N         0.72239128170203    0.76540591465982    1.99672887309315
C         0.79229118110938    1.70203369010103    2.93264895353728
C         0.92337369635503    1.41903451974906    4.27794972595567
C         0.98835022723532    0.08484679680694    4.65856219893064
C         0.90844195439126   -0.89387650785677    3.68893397354053
H         0.47044794749261   -1.49653579184472   -2.14050140519477
H         0.37191922064995   -3.90540203795545   -1.74550991050773
H         0.45332667187606   -4.79608527234731    0.55728325895952
H         0.62979788032220   -3.26731257332566    2.45087086082728
H         0.73036312940702    2.72710781055869    2.59074214085777
H         0.97372988646929    2.21445200289243    5.00324613192760
H         1.09771164219833   -0.18318819833496    5.69816587382193
H         0.95858787196745   -1.93181875363527    3.97151204413601
C         0.62984548273299    1.16122237027684   -2.18732624634633
C         1.67643322181908    1.16736376750162   -3.10102114774518
C         1.44148822525984    1.28728548661256   -4.46216091361446
C         0.14667560171440    1.40712761514557   -4.94224855856361
C        -0.91503048808918    1.40378015964877   -4.06079460423994
C        -0.68284668960608    1.28143187570675   -2.69032175523734
C        -1.73056446589210    1.25647526285110   -1.68162977616473
N        -1.28358060550562    1.10975185607052   -0.41093161145297
C        -2.16925335118078    1.07067680753321    0.58386008092733
C        -3.53166708229190    1.17436339764849    0.38722227637326
C        -4.00647267464543    1.32573079657169   -0.90920049980530
C        -3.09646360435073    1.36704529031635   -1.94521565556100
H         2.69895857104365    1.06780657912891   -2.76157515647655
H         2.27277273675834    1.28482556380025   -5.15176416701925
H        -0.03069465738077    1.49895053916536   -6.00271132688146
H        -1.92024952411659    1.49364143744541   -4.44285104569199
H        -1.77590918935903    0.94597368379320    1.58328345685699
H        -4.20444783395115    1.13302499792876    1.22803284332805
H        -5.06482995964476    1.40652061022837   -1.10219643688080
H        -3.43679284077200    1.48194649926125   -2.96087633494007
