88
 energy: -154.179631212855 gnorm: 0.000570073089 xtb: 6.4.1 (afa7bdf)
Ir        0.76599120212866    1.10581698633238    0.43092753735358
C         6.58076935531157    3.16129497084296    2.61661925096332
O         5.22589501029990    3.11448137803553    2.20537996814436
C         4.72908910811254    1.94726440727281    1.75440234040965
C         5.43402792076914    0.75085015924771    1.65444459641030
C         4.77593606588460   -0.36865834276859    1.16964213362414
C         3.44745476024923   -0.28257732076848    0.80031981045531
N         2.75256632203360    0.85206499891293    0.89309670130515
C         3.37653547268695    1.95358635511693    1.35917320290142
C         2.56153424543147    3.14735897739200    1.41139982396876
C         2.77742784568358    4.50044852524392    1.59771558416715
N         1.55762117812624    5.05755523125515    1.43994438319798
C         1.15085619729720    6.42396200673173    1.37243846544684
C        -0.40858336103828    6.47936790916987    1.37151125408167
O        -1.24879100445685    6.22195882597051    2.17201043679202
N        -0.41501361330625    6.91065557161152    0.07363404377571
C        -1.34805431891957    6.87633810040265   -0.95518612039805
C        -2.77280560598731    6.96911276117071   -0.52261498207963
O        -3.68283577661083    6.39265659276926   -1.06224436988471
O        -2.91085175606413    7.77238118172514    0.51839003078559
C        -0.95388941143250    6.76212079149146   -2.23767738543627
C        -1.92062567093042    6.73435101916675   -3.38928193615879
O        -1.51394652904659    7.56923980239149   -4.47122591659912
C        -1.28191682702123    8.86272179314754   -4.18848665262560
C        -1.01708820298855    9.64871785517315   -5.43682111329141
O        -1.28537146639809    9.29622198175886   -3.06662592856437
C         0.48930387053311    6.69311743970082   -2.63840690454639
S         1.54909232747444    5.84143304351671   -1.42767261974461
C         1.01943141558362    6.95024986115849   -0.07568728028196
N         0.64971002611604    4.12975851706895    1.17460307145884
N         1.23408965814606    2.99706872354681    1.16044573249885
H         7.25471393875315    2.92043331090165    1.79089723397653
H         6.76525444097232    2.48648810033756    3.45625260888956
H         6.75340252895552    4.18721810925438    2.93528615071968
H         6.47043052596993    0.68589035831098    1.94112428337983
H         5.29873835286008   -1.30630212124790    1.07615369490887
H         2.92006457868728   -1.13937837073451    0.40804201014665
H         3.66058272537654    5.06137546417963    1.80917795012659
H         1.69783823483682    7.04748945431827    2.07851690770001
H        -3.83501122735629    7.81912572447368    0.81303559954447
H        -1.96390065477561    5.73338539337889   -3.82798136941990
H        -2.92239338865489    7.02234517955103   -3.06134666914310
H        -1.95624511392032   10.08771846983108   -5.77011204676914
H        -0.63868905957781    8.99985396112545   -6.22025941452236
H        -0.32142662004989   10.45581303015028   -5.22591841208709
H         0.59970805410491    6.13112565164186   -3.56531516609665
H         0.90323136629482    7.69462964747595   -2.78337644924150
H         1.41285378513992    7.95333114162135   -0.25584521781909
C         0.42720309026565   -0.78422283872713   -0.22325743661618
C         0.45396001329941   -1.25727120642888   -1.53146912476768
C         0.22031254690258   -2.59039440466744   -1.82887858827638
C        -0.05065433225245   -3.49377148052145   -0.81380538745400
C        -0.08620723240530   -3.05956433885173    0.49468203862711
C         0.15052711811582   -1.71768173772816    0.80366322349322
C         0.11962237329163   -1.21817740756955    2.17607050213718
N         0.31133016905936    0.10837245773443    2.30907659106828
C         0.28431229351542    0.66330327265524    3.51306449521225
C         0.07462973964257   -0.05856101701943    4.67192263637943
C        -0.11439422110941   -1.43021374265722    4.56000696638547
C        -0.09343571187982   -2.01074424111460    3.30806776130559
H         0.66207217625234   -0.57228434697217   -2.34022210804619
H         0.24745057079789   -2.92478316187108   -2.85515507005738
H        -0.23596271347615   -4.53192489288416   -1.04307117336867
H        -0.30461083773286   -3.77177626535442    1.27540611110072
H         0.42682939296572    1.73546003619421    3.55009913877264
H         0.05791971469895    0.43528065993077    5.62953584256764
H        -0.27872605041926   -2.03377394116278    5.43948963413045
H        -0.24087472450525   -3.07289027418503    3.20803717871595
C         1.07965065430158    1.91321947602732   -1.40241549393168
C         2.24962097861984    1.96026262456088   -2.14948302098169
C         2.29342087462712    2.60860273637560   -3.37375748258647
C         1.15868361812898    3.21945958206549   -3.88418299685089
C        -0.01629945447156    3.19739159790394   -3.16050197240097
C        -0.05789666192569    2.56378152199138   -1.91978699570106
C        -1.24049986214379    2.50149847047247   -1.07317364604306
N        -1.11812146483718    1.68459063022505   -0.00017085719034
C        -2.15477033061853    1.54669969392187    0.82467288548119
C        -3.34579615473160    2.22679366802220    0.66120534967453
C        -3.47108382306187    3.10129706991145   -0.40927336812922
C        -2.41205405884680    3.22587628122602   -1.28526650172964
H         3.14566922056729    1.47378935092732   -1.78795531197991
H         3.21392417904094    2.62844606905625   -3.93819542104797
H         1.19397534977810    3.70164037805611   -4.85004559119497
H        -0.90578018017577    3.65485719808599   -3.56729253741404
H        -2.03143756115266    0.86361002195323    1.65370685728592
H        -4.15053391670365    2.08131485037991    1.36295164717667
H        -4.36884639890614    3.67955493654055   -0.55881769920214
H        -2.48869628780830    3.90216510524190   -2.11981492697283
