75
 energy: -123.914964449034 gnorm: 0.000546830578 xtb: 6.4.1 (afa7bdf)
Ir        0.82911344677282    1.10094847963478   -0.05354811790356
C        -3.52486146829285    7.15021211456522   -0.19913153020982
O        -2.62211646604536    8.23314660808013   -0.19504839234115
C        -1.30460561486477    7.98390504953251   -0.15675148285388
C        -0.71946965621371    6.72531124912763   -0.10999792629625
C         0.66807602013456    6.59362464296539   -0.07266757287968
N         1.19330789346929    5.29218395158509   -0.02360110215998
C         2.47571414545127    4.89569703036825    0.14382174473040
C         2.42344718873014    3.51405640537577    0.11781082500151
C         3.41592570599709    2.46475056354179    0.21851120042365
C         4.75218804268562    2.77536154679304    0.43685721786915
C         5.67628526422881    1.74833997007909    0.49143164919779
C         5.22466419564409    0.45828166281580    0.28976884813289
C         3.87104087928523    0.20784876642808    0.06704955306235
C         3.43281816943011   -1.18980312463632   -0.19693045882212
N         2.96676948537308    1.19736995247292    0.06396029412929
N         1.12357797606022    3.17717120349850   -0.06382231223325
N         0.40095132005930    4.23135171095892   -0.14283836662356
C         1.49719736904757    7.70536068463711   -0.08455845225984
C         0.92483664193927    8.96638577951725   -0.12868722961869
C        -0.44563913157557    9.09949047178204   -0.16173462525818
F        -0.98374174446778   10.32257195346291   -0.20219998616708
H        -3.37675593182468    6.51079918676154   -1.07429295301569
H        -4.51483876939605    7.59958938458499   -0.24120153304532
H        -3.43479525053298    6.55297420624368    0.71310072898886
H        -1.31640754113049    5.82872784492840   -0.10582430288188
H         3.29203915135498    5.57194667772505    0.26900724494996
H         5.05099998229699    3.80343521908360    0.55743546652685
H         6.72043875550412    1.95111322452470    0.66871167393872
H         5.91580597591333   -0.36887606722780    0.29733889696401
H         2.92226323144010   -1.60126624037903    0.67132826566360
H         4.28864992986045   -1.81886248039567   -0.42294138339330
H         2.73148040363110   -1.21323134822773   -1.02675748714273
H         2.56988037773897    7.61465187816883   -0.06998580632944
H         1.53759824319512    9.85287153612646   -0.13988208373207
C         0.43736656864360   -0.88247177511643    0.15334938493924
C         0.10692984738194   -1.79848854965590   -0.84247444926564
C        -0.25514557518529   -3.10167302735335   -0.54464649936378
C        -0.30804991791427   -3.52629582323792    0.77341034438994
C         0.00559867381865   -2.64489822355466    1.78576972740055
C         0.37822152087017   -1.32969589047510    1.49322833411002
C         0.71040291004903   -0.37085389818836    2.54303446722603
N         0.88693941525764    0.89977138166741    2.13184187370035
C         1.17705453549825    1.84040921714291    3.02063044393031
C         1.31937955061611    1.59212026549046    4.37143430740524
C         1.15719894178084    0.28535618641647    4.81390172135850
C         0.85252671590321   -0.69801866975257    3.89538475011414
H         0.13536075698609   -1.49403216297013   -1.87905790056599
H        -0.50277986084003   -3.78567556965011   -1.34233178801936
H        -0.59818363338436   -4.53847512910723    1.00917808545070
H        -0.05656239730629   -2.98157523056247    2.80919953528451
H         1.29411730228565    2.84649787876955    2.63792999891966
H         1.55116308780283    2.39304999993669    5.05412767626938
H         1.26712440801979    0.04302762241553    5.85973025429432
H         0.73179092729779   -1.71712303035744    4.22234511756486
C         0.71299933596588    1.10195392260263   -2.07474414597898
C         1.74093970353379    0.99809896267800   -3.00311218151432
C         1.48634237724113    1.05426597097505   -4.36514453074924
C         0.19129238825491    1.22024897109658   -4.83078176440134
C        -0.85146424151734    1.33247298360227   -3.93386559786479
C        -0.59949248464369    1.27533626380171   -2.56268687233701
C        -1.62225672319736    1.38023612213555   -1.53512330479177
N        -1.15684181607099    1.27187770593241   -0.26846708190480
C        -2.01240242496461    1.35865595382248    0.74762455644451
C        -3.36768672270855    1.55637993003626    0.57604847990939
C        -3.86433428964556    1.66782628259651   -0.71639659098721
C        -2.98276834186486    1.57909921111364   -1.77376656141724
H         2.76319392639832    0.86761493190020   -2.67436664076476
H         2.30285327377828    0.96639656776753   -5.06655349696928
H        -0.00073450697980    1.26080327231760   -5.89182284764800
H        -1.85710491224549    1.46079171387267   -4.30353637233388
H        -1.60133259473007    1.25995436171993    1.74255175434331
H        -4.01864815611341    1.61602036829057    1.43273943847209
H        -4.91844293098570    1.81854939321812   -0.88943145287201
H        -3.34012585799229    1.66136284416097   -2.78670867618614
