74
 energy: -112.393081882773 gnorm: 0.000430067139 xtb: 6.4.1 (afa7bdf)
Ir        0.66348116337712    1.24169253665639    0.18651041418878
C         4.92575852966289    0.50556034348451    0.36709566169436
C         5.45524939093799    1.78914067510498    0.36549365966405
C         4.58106706747506    2.85899593310552    0.31566029165223
C         3.21192320430607    2.61627748519223    0.26908471530240
C         2.23479280275149    3.68156573951170    0.20661663715889
C         2.30105847699506    5.06371607232064    0.15932172925071
N         1.01796284340354    5.46564185119989    0.11789283292652
C         0.50068498322542    6.81421210595738    0.07224697784004
C        -0.31625080618734    7.09657040037950    1.33570513964749
C        -0.87200172781062    8.51665874979281    1.28830411169289
C        -1.73024627580140    8.71436594266726    0.04298538484829
C        -0.92269581717442    8.41599360916409   -1.21627806777762
C        -0.36722459995622    6.99548855363605   -1.17434868076381
N         0.20536620708404    4.42533190538917    0.13854841896438
N         0.91566891893210    3.35903622062346    0.18848544515469
N         2.69873518719385    1.36534832078565    0.27483135977274
C         3.55383851447044    0.34157750577262    0.32047102686420
H         5.56717128435379   -0.35963682814590    0.39952800697577
H         6.52094566716017    1.95016566867062    0.39826718948950
H         4.94351413700972    3.87427810901474    0.30838878427746
H         3.12439695195779    5.74522508298856    0.15018533354612
H         1.36156637732192    7.48980727252932    0.02860051964272
H         0.31192563905407    6.96783484924881    2.22066270884068
H        -1.13604037965001    6.37746604656527    1.38784929998990
H        -1.46434006744453    8.70325568678308    2.18452326559327
H        -0.04569554486968    9.23065033144102    1.27993484974893
H        -2.09878156267216    9.73962617339698    0.00984026399175
H        -2.59397305509227    8.04845632209119    0.08720934366950
H        -0.09812127069090    9.12733187721109   -1.29820497937704
H        -1.55123330835232    8.53170332446631   -2.09937118183807
H        -1.18542129492409    6.27404476810302   -1.13739717876471
H         0.22460288700153    6.79405741394003   -2.06993356211345
H         3.11654516808526   -0.64669421720543    0.30954452515833
C         0.58788174797014   -0.77716650856523    0.34228047256602
C         0.51594476428168   -1.71312342691260   -0.68351871059623
C         0.47856951362029   -3.07388219747429   -0.42354780461890
C         0.50927660034634   -3.53405917532369    0.88293667909344
C         0.58057783315279   -2.63181500682693    1.92347958926651
C         0.62270752374101   -1.25805049017174    1.67096122852670
C         0.70015970857706   -0.27369878207245    2.74758796138514
N         0.67510667498900    1.01438286455121    2.35623992025960
C         0.72367804572658    1.98039244205889    3.26330220356172
C         0.80906090961563    1.74080700705783    4.62058686857301
C         0.84813608827447    0.41914689373480    5.04635526058992
C         0.79197154648923   -0.58991973366868    4.10672863611800
H         0.49039698730944   -1.37868143196015   -1.71023123394735
H         0.42300328919475   -3.77574613303336   -1.24200663751099
H         0.47588135978627   -4.59285324994698    1.08878124606606
H         0.59857482850306   -3.00415655572811    2.93600690288460
H         0.68143760816277    2.99422822381671    2.88653402899065
H         0.84342994427662    2.55892900087821    5.32115400651352
H         0.91873286086131    0.18423420500298    6.09724763537255
H         0.82044499615070   -1.61827566954492    4.42500212095338
C         0.55845077159440    1.27336786504157   -1.83668992409827
C         1.59645288895564    1.27423605522411   -2.76038761903692
C         1.34670520417897    1.33364967190045   -4.12299809547898
C         0.04505648565813    1.39748193702569   -4.59486454638377
C        -1.00832357934385    1.40028674187408   -3.70340080675928
C        -0.76112311584565    1.33831550096962   -2.33154011779512
C        -1.80041220750957    1.32356109209753   -1.31346359113971
N        -1.34046496355235    1.24480137021885   -0.04162480779412
C        -2.21838939435995    1.22155988532323    0.96060378622234
C        -3.58464721852566    1.27169734116932    0.77028902190518
C        -4.07248615277135    1.35115085160482   -0.52752129002507
C        -3.17063584955326    1.37900396622587   -1.57109510704116
H         2.62470879770976    1.21676137965631   -2.42814861367524
H         2.17183150142648    1.32666018359598   -4.81992847108434
H        -0.14424640444353    1.44090704556539   -5.65637820918811
H        -2.01881681122753    1.44736069114359   -4.07883688677474
H        -1.81609553780873    1.15467329759782    1.96195376281022
H        -4.25011741871309    1.24544831962399    1.61744077184013
H        -5.13403820430140    1.38863049673891   -0.71584915482578
H        -3.52104031373158    1.44072119968568   -2.58786372264058
