74
 energy: -122.739278855149 gnorm: 0.000242563389 xtb: 6.4.1 (afa7bdf)
Ir        0.69693718150107    0.96836924557948   -0.32073629399083
C        -2.76680567286748   11.84143068468624   -0.39735567297998
O        -2.20663105703305   10.53311134140901   -0.40720963043893
C        -0.87631507269314   10.46817029009958   -0.33496557486494
O        -0.15497544665794   11.42986054118777   -0.26292522885796
C        -0.37371458508014    9.06318512329776   -0.34609908511027
C         1.00102231514128    8.86322651585262   -0.25578196182233
C         1.52572322586991    7.58669354942233   -0.24775773216590
C         0.66451015414617    6.49667342858608   -0.33391372924820
N         1.15179664130180    5.17982303097824   -0.30870265725117
C         2.43085900376227    4.74011110898685   -0.25426180096315
C         2.32911214358396    3.36260924203008   -0.22678045739587
C         3.27850233550043    2.27209662069542   -0.16033024300570
C         4.65130343366314    2.47810115742412   -0.07007272116125
C         5.49555791375946    1.38461313085258   -0.01162922395471
C         4.93350535470781    0.11556844195208   -0.04706528146838
C         3.55976129370994   -0.01160614812702   -0.13842018277964
N         2.73353179423095    1.03490668121642   -0.19137106587852
N         1.00174999485565    3.06858836922078   -0.26852724452828
N         0.31558137647271    4.14614656311062   -0.31443421433635
C        -0.71214750138005    6.68850286570340   -0.43282742425241
C        -1.22835828911327    7.96831815462297   -0.43785617748757
H        -2.42538569803853   12.40494930693504   -1.26748345073415
H        -3.84504756898015   11.71013444618067   -0.42476396762397
H        -2.46564652803344   12.37472977799959    0.50611150244511
H         1.64477469245603    9.72671729734550   -0.18836127161871
H         2.59285212714160    7.45427219775926   -0.17124605398070
H         3.28141736324741    5.38520324065186   -0.24624896724463
H         5.04082274003870    3.48303175470997   -0.04915609577051
H         6.56348900935260    1.51723708329777    0.05639582209376
H         5.55112262217885   -0.76653049057949   -0.00863649505435
H         3.09742770614340   -0.98763877614972   -0.17958008995140
H        -1.35682893247328    5.82699585671238   -0.50294659671427
H        -2.29203486248396    8.12646400243718   -0.51124211621217
C         0.55926404380607   -1.05147483066674   -0.22592061471228
C         0.44532594906110   -1.95225035447214   -1.27894260430079
C         0.36534284460632   -3.31849654180843   -1.06028857691812
C         0.39741505494942   -3.81993696041349    0.23080502687164
C         0.50871620883485   -2.95315785314469    1.29773081799510
C         0.59012852339697   -1.57414875357425    1.08713212187229
C         0.69776290544930   -0.62572194111017    2.19317333655013
N         0.68059366103600    0.67441563082588    1.84304793089027
C         0.74904985098982    1.61089384119320    2.77944088838741
C         0.84967310593193    1.32741618032788    4.12725857993851
C         0.88536845007927   -0.00735580983653    4.51010496192071
C         0.80748044334055   -0.98576528425051    3.53992866455420
H         0.41907317284303   -1.58580694584020   -2.29464808598078
H         0.27513124597504   -3.99207433800845   -1.89909899826577
H         0.33266154440076   -4.88304826270608    0.40422179334350
H         0.52459522566717   -3.35682196503106    2.29820970383203
H         0.70989173570186    2.63671020918152    2.43593530097608
H         0.89862399797876    2.12284358417876    4.85258669262428
H         0.96988522566189   -0.27595196753174    5.55191335676700
H         0.83419433721036   -2.02402105459555    3.82454819640390
C         0.62453050926567    1.05973216038942   -2.34407817156617
C         1.67708029498264    1.04911370267595   -3.25045481931645
C         1.45188364831525    1.16076336591362   -4.61420488797646
C         0.16141421122974    1.28946307683754   -5.10305870129388
C        -0.90583198105108    1.30399040100027   -4.22819988067284
C        -0.68370737396046    1.18978113516631   -2.85542354345572
C        -1.73850440853307    1.18250737672120   -1.85316526527611
N        -1.30162158789608    1.04162169678803   -0.57866291836050
C        -2.19366945475739    1.01892810457545    0.41081402753423
C        -3.55378096821479    1.13293812735435    0.20420438287454
C        -4.01841893147473    1.27831611680893   -1.09640908097865
C        -3.10135310147387    1.30361294423334   -2.12681095601551
H         2.69661510875527    0.94155577506117   -2.90420020839906
H         2.28744916162259    1.14446473393431   -5.29830988733019
H        -0.00849826554491    1.37429314848034   -6.16530377871909
H        -1.90757750746696    1.40116107773796   -4.61713922858145
H        -1.80820336678599    0.89932640396950    1.41389971415196
H        -4.23219676641199    1.10517233408014    1.04093377063712
H        -5.07459493583816    1.36773172069906   -1.29710591310745
H        -3.43388601961682    1.41502937877945   -3.14535976258746
