82
 energy: -128.185848726422 gnorm: 0.000395503394 xtb: 6.4.1 (afa7bdf)
Ir        0.80287311440444    1.07561232212793    0.19876911912963
C         6.34440967920777    4.42391518286974    1.13184917102454
O         4.99912346661773    4.08364577921844    0.84969627470553
C         4.64434111253239    2.78338580020984    0.87073801577757
C         5.49472285354888    1.71845192453557    1.15076017605282
C         4.97486645886376    0.43320650145502    1.13727365930789
C         3.63853438377184    0.23315043985133    0.85363913642011
N         2.80576022808408    1.24128152529098    0.58691534931883
C         3.29297407866852    2.49669540170565    0.58975873470838
C         2.33577632870486    3.53295727379079    0.27564557556408
C         2.41789110582836    4.87607317707454   -0.04612355198313
N         1.14620481481521    5.24329321605311   -0.28562382657291
C         0.64402757583530    6.54236764604368   -0.68996255086389
C         0.34337416505261    7.40660018648865    0.53818283596288
C         1.62305681064516    8.00176749214131    1.11042994445791
C         2.25386440691689    8.92893881430293    0.07718392740888
C         2.41472655257925    8.26738340595240   -1.26261745180153
C         3.33360167220479    8.77528309511417   -2.17607467151874
C         3.49666829496776    8.20045007398103   -3.42139596776114
C         2.73853994219944    7.09620313345141   -3.77767413684972
C         1.81845518789647    6.58542515840208   -2.88390610339036
C         1.64559356887928    7.16791010203174   -1.63153669844704
N         0.32610577767040    4.22363849478340   -0.12431883802441
N         1.02052321429528    3.19701286662083    0.20746149098471
H         7.02748592789945    3.98342084886720    0.40126968292249
H         6.62980682176812    4.11501229434592    2.14083824496124
H         6.39156417002143    5.50870002352958    1.06032315424090
H         6.53745711959699    1.87641969972454    1.37031057004687
H         5.61114947348449   -0.41154371161863    1.34377246488525
H         3.21847255983181   -0.76096515476256    0.82568801430550
H         3.25273298626233    5.53372675360716   -0.14503511823281
H        -0.29264880343220    6.33086004719307   -1.21903729285433
H        -0.17966111066862    6.80337346732486    1.28309039993594
H        -0.32310205982510    8.21388853920382    0.23155931405739
H         2.32143775974299    7.20481632545044    1.37775609324612
H         1.39729716605489    8.56101340271288    2.01898800444862
H         1.61584739643290    9.80929972291456   -0.04981420302851
H         3.22437206579813    9.28488495702445    0.42828148254762
H         3.92605836604070    9.63468701255399   -1.89846887014202
H         4.21437517860492    8.61117911861379   -4.11454870324540
H         2.86113587346396    6.63956438169920   -4.74731614529357
H         1.22074677075859    5.72552496285669   -3.15437263468963
C         0.74452839289188   -0.94799410897574    0.25828393327318
C         0.81014136503707   -1.83562145067570   -0.80960353508919
C         0.75661078909806   -3.20698240154626   -0.61706662379251
C         0.63112130313975   -3.72631759424377    0.66145118081937
C         0.56420782069632   -2.87270289121954    1.74271721311400
C         0.62180205114245   -1.48896190746806    1.55835550747814
C         0.56003754229449   -0.55020580575892    2.67606768681187
N         0.54940161851648    0.75199619709453    2.33341992565347
C         0.48651272297660    1.68288558397064    3.27513194112154
C         0.43611470201673    1.38975513881347    4.62411234639730
C         0.45510080843683    0.05303091887281    5.00128352685041
C         0.51599939860524   -0.91950981054794    4.02377748946152
H         0.90739155424889   -1.45324057601618   -1.81516183479089
H         0.81017427214698   -3.87121238353641   -1.46660140907598
H         0.58388931032846   -4.79373190884896    0.81340785986511
H         0.46027671744526   -3.29011745996763    2.73243797061642
H         0.46770594082470    2.70886488749977    2.93128837420068
H         0.38357579669945    2.17957751054296    5.35540255987820
H         0.42086907129373   -0.22206459060981    6.04436853625323
H         0.53252126797637   -1.95944548057106    4.30347507347736
C         0.96260669130525    1.24483229436830   -1.81271102035474
C         2.11327248178062    1.35122139152046   -2.58420167931400
C         2.04438403764668    1.57258692985230   -3.95122010462804
C         0.81526104467433    1.69546415893463   -4.58015821494446
C        -0.34673254184217    1.58964080672527   -3.84287801333255
C        -0.28113713101131    1.36613034454761   -2.46731790976456
C        -1.44355188333550    1.23887069231801   -1.60111227547495
N        -1.14925608035630    1.05231919319105   -0.29186728073146
C        -2.14828915220740    0.91690478058809    0.57990467795093
C        -3.47928710527480    0.95599632851184    0.21613392422958
C        -3.79754757515477    1.14454002887534   -1.12227326756300
C        -2.76964510199988    1.28736022986344   -2.03145681267875
H         3.08838455941350    1.25318000995231   -2.12529768155522
H         2.95420442290808    1.64917650554155   -4.52856051248690
H         0.76696674740993    1.86970091433503   -5.64421868006322
H        -1.29975107371276    1.68478485513869   -4.34016326270221
H        -1.87632371929746    0.76509977040608    1.61528963170914
H        -4.24730263308795    0.83779842678176    0.96270730798386
H        -4.82652246052727    1.17609485050820   -1.44469059677181
H        -2.98757542915807    1.43188191649549   -3.07656202375123
