81
 energy: -126.534481884207 gnorm: 0.000503121929 xtb: 6.4.1 (afa7bdf)
Ir        1.28836941645124    1.35753597977751    0.23358910888165
C         4.21618942136838   -0.51436786217109    0.17719056521613
C         4.41361244763283    0.89415702594145    0.61729235989410
C         5.69721695086036    1.31893745915261    0.95678504383325
C         5.92715748139810    2.62929350928398    1.33092609393442
C         4.85126941681733    3.49657124705831    1.35342868200166
C         3.59181829576833    3.01192761100676    1.02185746381152
C         2.44925754869420    3.89853748744571    1.01780858187874
C         2.28179862183283    5.25340441737434    1.24534504202708
N         0.96905275988068    5.47130343508175    1.04526953047230
C         0.32372721202238    6.74704216165662    0.91433952922971
C         0.24972550320340    7.11536693619131   -0.58867630705615
C         1.47013460651762    6.62579414497100   -1.29745068192764
C         1.54510130794334    5.53153525170200   -2.11190953901419
N         2.84307730099026    5.28926078035774   -2.45660121198786
C         3.64383967137720    6.21979152841856   -1.86030453452229
C         5.02493529279760    6.37298193139873   -1.88112261300015
C         5.56298714783733    7.41338930184935   -1.15525777436136
C         4.75146894049747    8.28974932540040   -0.42729648700474
C         3.38340542541146    8.14307542832994   -0.39933417278206
C         2.81052524460402    7.09029125003320   -1.11591053555382
N         0.35745145849648    4.35048729487105    0.70895331164729
N         1.22889211162299    3.40932680913961    0.69425814931446
N         3.36358483200925    1.72674645795153    0.66378951925501
H         3.61917026377450   -0.54571653001069   -0.73058648869548
H         5.17345885727109   -0.99617189048261    0.00105381577064
H         3.67989775806418   -1.07906468469524    0.93724730011064
H         6.51085903910929    0.61297724097459    0.91584442920103
H         6.91801676202298    2.96878024019649    1.58759695263197
H         4.97209313010836    4.53467633560422    1.61467853870584
H         2.96431344218258    6.02975036250982    1.51561017676732
H        -0.67748209313119    6.68503158144604    1.34298823796580
H         0.91578517560151    7.47970697762173    1.46365233843097
H         0.14965357185346    8.19714982561091   -0.67667380240490
H        -0.62771930085874    6.64330386147519   -1.03068849934647
H         0.75596393706317    4.90107407320772   -2.47488416887211
H         3.14180076623646    4.54846289874484   -3.06927974722940
H         5.65001647796919    5.70347778049343   -2.45265818795299
H         6.63160086143031    7.56461524256935   -1.15225039896446
H         5.21381091490521    9.09951353209712    0.11690028720022
H         2.76497715058788    8.83405210250602    0.15540555545908
C         1.18898299138551   -0.65186229023860   -0.05251111512059
C         1.13940097774569   -1.34885327387971   -1.25709846012273
C         0.93735403326894   -2.71851518030367   -1.30027972079856
C         0.76537583309639   -3.43465214446804   -0.12678128298940
C         0.80396628840045   -2.77698331216265    1.08427334962613
C         1.01566211529784   -1.39675165844009    1.13666097921974
C         1.06613836283618   -0.66952579314699    2.40218996790506
N         1.11006316050369    0.67269772205251    2.29579789125858
C         1.15237299239953    1.41576420938836    3.39334013950116
C         1.16215623138052    0.88569431109736    4.66854257939881
C         1.13148236487829   -0.49665845023163    4.79996491958386
C         1.08315895492032   -1.27572255522430    3.66202067409285
H         1.26504760027716   -0.81541832522489   -2.18874716017499
H         0.90680603530762   -3.22712583071081   -2.25209484968309
H         0.59729632799361   -4.50004868725401   -0.15773384481440
H         0.65217327033131   -3.34234163419034    1.99080644283330
H         1.17265852152028    2.48823341496821    3.24878344276994
H         1.19463095957886    1.53196374283909    5.53023050010834
H         1.14534478848557   -0.95500434457318    5.77678858094638
H         1.06700258829013   -2.34921310110926    3.74768708207598
C         1.42717354319841    1.80475648241244   -1.73368676731762
C         2.56603082769572    1.99269984887991   -2.50883925093903
C         2.47551439247475    2.32345580333238   -3.85374923612454
C         1.23647698464095    2.48691986768002   -4.45481012909386
C         0.08619215067197    2.30587621453486   -3.71282485043880
C         0.17395100415609    1.96188838215636   -2.36376101766644
C        -0.97380820355330    1.71520706947428   -1.50333985983787
N        -0.65636043002067    1.33652788118332   -0.24346115327172
C        -1.63351290637107    1.07234427711609    0.62020009907661
C        -2.97195344112993    1.16710489932497    0.29461398054561
C        -3.31675075546743    1.55843475119188   -0.99203974224719
C        -2.30765629859258    1.83295347620972   -1.89270888916845
H         3.54829615555784    1.87298936511737   -2.07082876692269
H         3.37575212830985    2.44174578710649   -4.44152504851122
H         1.17169370100037    2.74574047156731   -5.50046345210370
H        -0.87456163077613    2.42490288182480   -4.18964921778688
H        -1.33881659941317    0.76510338346089    1.61373222849823
H        -3.72498279801016    0.93831131623382    1.03067717790413
H        -4.35198752801638    1.64464560239306   -1.28271624329072
H        -2.54719082446384    2.13792455752766   -2.89795343991557
