72
 energy: -120.744678193068 gnorm: 0.000565783987 xtb: 6.4.1 (afa7bdf)
Ir        0.76552490505851    1.38047204809182    0.17967196779653
C         1.36655617342443   11.64428259285440    0.06785368834646
O         1.74548948308403   10.28197827858281    0.17724312387558
C         0.85818504198163    9.30043897996607   -0.04860013276768
C         1.36490060967958    8.00395915792130    0.08484249496879
C         0.56384958578762    6.89357920619639   -0.12310819024324
N         1.08769526497030    5.59783008200546    0.00839793961949
C         2.37995128778908    5.20198408435865    0.06124338299998
C         2.32098164827987    3.82641658509044    0.18122988956765
C         3.30423461922760    2.76837009449874    0.27477180487074
C         4.67034781705378    3.01976838303094    0.34980242257708
C         5.54941356916587    1.95556157564909    0.43091867221133
C         5.02799599917528    0.66881009415468    0.43335906452567
C         3.65848938450354    0.49595111668654    0.35557092279256
N         2.79880326952980    1.51384603073631    0.28023994376852
N         1.00277567432760    3.49257898677195    0.19366694983658
N         0.28282890673845    4.54473707550775    0.09219453756293
C        -0.77880129966970    7.03684683571996   -0.46061186116808
C        -1.29570470217079    8.30854760902501   -0.59095569837018
C        -0.49489766263767    9.42023239567346   -0.39285445004865
F        -1.07415492519382   10.62754927055279   -0.54228744435611
H         0.58614434785242   11.90324920176623    0.78603816666988
H         1.03059004777083   11.88732729919828   -0.94210590074410
H         2.26943615195568   12.20776145950321    0.29484044442734
H         2.40132782117352    7.92178445538760    0.36727362016906
H         3.20649902183612    5.87396693297609   -0.00947086564176
H         5.02726733870542    4.03693472025737    0.34234824678733
H         6.61302038681314    2.12366243845219    0.48686742225181
H         5.67344741938324   -0.19211202529700    0.49027869932898
H         3.22735077674984   -0.49507537087678    0.34373853630981
H        -1.38973684490868    6.16392977193363   -0.61590578270393
H        -2.32992807474664    8.46438249832734   -0.85234311385451
C         0.69572420710557   -0.64287794820632    0.27814822558683
C         0.60654876752254   -1.54855414772869   -0.77300136545506
C         0.57101686831974   -2.91630746358824   -0.55190523881303
C         0.61902486646307   -3.41431799337287    0.74007769171201
C         0.70738905309374   -2.54269641338261    1.80519724693250
C         0.75032669673407   -1.16244963108032    1.59170896507153
C         0.85177538156090   -0.20949427083355    2.69444722846070
N         0.79820855275455    1.08901815375462    2.34224534707031
C         0.87156400025229    2.02951853460296    3.27415939257406
C         1.01485174316051    1.75139159082485    4.61934143056705
C         1.08470905269037    0.41858936177139    5.00431516862773
C         0.99977114991722   -0.56398888430581    4.03892738003140
H         0.56581925500366   -1.18467955753958   -1.78914382222341
H         0.50310628118997   -3.59413627658492   -1.38940541284837
H         0.58596083445150   -4.47856402702073    0.91552164294616
H         0.73643128310035   -2.94348535510580    2.80656472967745
H         0.80347982087007    3.05293779425849    2.92830385700091
H         1.07043779032362    2.54922746096782    5.34148379655373
H         1.20163287501033    0.15435634205215    6.04409807371489
H         1.05244753459711   -1.60071722090035    4.32541511683487
C         0.65591578164526    1.47654405651112   -1.84182300900327
C         1.69235137328380    1.50297125955302   -2.76632511684010
C         1.44055206687202    1.62574758732736   -4.12447222069793
C         0.13895598155402    1.72890135409015   -4.58935351108123
C        -0.91282372470867    1.70606917184374   -3.69607570512816
C        -0.66379561576483    1.58056573605753   -2.32898679211289
C        -1.70009669896986    1.53814576927606   -1.30824059320570
N        -1.23658598986413    1.39539000557854   -0.04339142365929
C        -2.10934971727240    1.34351451929272    0.96195504700984
C        -3.47529562614383    1.42860870153306    0.78139600426115
C        -3.96711219544339    1.57469881395243   -0.50899010364253
C        -3.07003804511546    1.63002101054494   -1.55583589460256
H         2.72014340445702    1.41633581884059   -2.43893762553993
H         2.26399896964580    1.63911738589819   -4.82325023788426
H        -0.05147608712611    1.82340639351048   -5.64732587681254
H        -1.92338332676228    1.78377248389802   -4.06623604103796
H        -1.70250971178789    1.22476521657919    1.95662996788313
H        -4.13700415422858    1.37878533704030    1.63036741390785
H        -5.02860413410208    1.64138940787837   -0.68940276617497
H        -3.42393460696418    1.74242805752048   -2.56710247100441
