85
 energy: -133.248121129041 gnorm: 0.000321120902 xtb: 6.4.1 (afa7bdf)
Ir        0.96418683844830    0.66108583653218   -0.12250286492678
C        -0.13376387272264   13.23595392173000   -0.40442433009762
O        -1.00258441309347   12.13208802187684   -0.49315697357366
C        -0.46866877017557   10.89497826074350   -0.62504694790352
C         0.88281776181731   10.60214685277920   -0.66634850325828
C         1.31878498747267    9.29027775495526   -0.80028200972903
C         0.41250360207040    8.25516283787328   -0.90451932614098
C         0.87657322410448    6.82785221505412   -1.00871824851104
C         0.80639730534361    6.16562525630874    0.37692718612122
N         1.31813049229140    4.82410522825101    0.34341645107559
C         2.58880460516397    4.41625022138033    0.52272896752535
C         2.54566651118277    3.04450930452203    0.33621492263844
C         3.53318101917977    1.98736603810593    0.38528310003456
C         4.85750543560404    2.27219772135703    0.69333006776938
C         5.77815956222098    1.24072989555238    0.70147154507231
C         5.33736900366631   -0.02450047053588    0.36435033245767
C         3.99621802183328   -0.24873886622078    0.05559485206744
C         3.57417366851572   -1.61716912892834   -0.35101730286901
N         3.09235469384329    0.74016876074658    0.09879756397136
N         1.25820480630601    2.73525437941726    0.04960051265312
N         0.53745564269678    3.79701658938194    0.05790834683689
C        -0.95276403140562    8.53860786028752   -0.86379711017337
C        -1.40622592119424    9.83717584494600   -0.72772006726495
O        -2.70857950902531   10.21286069922186   -0.67840927194919
C        -3.70277263675424    9.22658273549120   -0.79629325389236
H         0.51277683879702   13.16977847055000    0.47662376530126
H         0.48326354881337   13.33546595638643   -1.30306922216955
H        -0.77826719043719   14.10811204402515   -0.31229430386211
H         1.61476742713486   11.38992169166294   -0.59648607570495
H         2.37949600119436    9.09056448572191   -0.83320577528344
H         1.90552131420148    6.79723139374689   -1.37238869660809
H         0.24684481812696    6.26624418467792   -1.70125269243744
H         1.38755559592993    6.74774077146442    1.09546607416243
H        -0.23282618866637    6.11605224969218    0.70682836335317
H         3.38306116698991    5.09007201112231    0.76273330180947
H         5.14970680224290    3.28463695734569    0.91767822277068
H         6.81237458339256    1.42321564692891    0.94623433469798
H         6.02761636252797   -0.85185791409486    0.33120068009533
H         3.09700555383691   -2.13117818964132    0.48156482602161
H         4.43570839964476   -2.20060642169273   -0.66329425534015
H         2.85194304369312   -1.56554127049739   -1.16070292016802
H        -1.65519764314674    7.72441848831575   -0.95230935906277
H        -4.65036056228221    9.75971366028350   -0.74577918640951
H        -3.65268617701137    8.50245060523944    0.02436008757799
H        -3.63629131020576    8.69829766394867   -1.75318705595885
C         0.56835290056599   -1.33107201160791   -0.06798561239190
C         0.25827991698340   -2.17314895398943   -1.13354130200607
C        -0.11495954471000   -3.49216256529771   -0.93711908584145
C        -0.19661978188058   -4.00949475400181    0.34588962781528
C         0.09760329923758   -3.20364402706512    1.42488493138022
C         0.47761720445379   -1.87204233981286    1.23464951072849
C         0.77531873405669   -0.98872552282647    2.35827198393498
N         0.92857012433974    0.31248850034380    2.04704551306300
C         1.17472808759439    1.19047433446018    3.00981903934589
C         1.30011264509098    0.84459857017564    4.34064294381368
C         1.16853022343332   -0.49599046610910    4.67959795562783
C         0.90406749410998   -1.41413378109144    3.68436804087322
H         0.31084643032280   -1.79608993470063   -2.14517150566132
H        -0.34937586542383   -4.11624154348206   -1.78632929323230
H        -0.49533650756700   -5.03443386261397    0.50284258754504
H         0.01126898799657   -3.61129526434931    2.42041077077861
H         1.26823897110089    2.22551095927041    2.70692520127357
H         1.49620102110345    1.59724450526551    5.08657916147514
H         1.27021169007947   -0.81432276985773    5.70569363379667
H         0.80562953939455   -2.45790607947835    3.93105916383865
C         0.94433904771924    0.80054367928889   -2.14153149212214
C         2.01696984412043    0.77147035601950   -3.02380297683239
C         1.82701962596800    0.91472010612925   -4.38997420200274
C         0.55331479936230    1.09533191740003   -4.90612242744499
C        -0.53282802358789    1.13455296274977   -4.05552190901816
C        -0.34604335683791    0.98892940336963   -2.68060960287420
C        -1.41844334434536    1.01009880844474   -1.69903884995511
N        -1.00958355984617    0.83661746882848   -0.42029084660496
C        -1.91269926090913    0.84421946392641    0.55732840744187
C        -3.26368528997810    1.01662400625960    0.33261614103969
C        -3.70295125408339    1.18998569384378   -0.97355329789694
C        -2.77116690748865    1.18810454079220   -1.99091251288373
H         3.02439056895079    0.63201929797397   -2.65528398804519
H         2.67728653980493    0.88347232154849   -5.05528331865348
H         0.41146825281244    1.20399119451269   -5.97034222509113
H        -1.52150165323710    1.27586620306182   -4.46422308967572
H        -1.54503609922099    0.69930250502045    1.56359858601283
H        -3.95488636217849    1.01062699676780    1.15928401382804
H        -4.75190380574923    1.32209396927110   -1.18816410669227
H        -3.08353774372920    1.32160385554927   -3.01327031940751
