88
 energy: -139.206281377261 gnorm: 0.000195527401 xtb: 6.4.1 (afa7bdf)
Ir        1.27223203099390    1.97306744759267    0.12240180549415
C         4.18799187254768   11.25284428662449    1.51972531488415
C         4.52402861593221   10.33551115818961    0.34605687729075
C         5.43665312701201    9.19426445410790    0.80183109099930
C         5.17273343113386   11.11564388841654   -0.79451232351210
O         3.32804625876609    9.65546010113156   -0.12597467026031
C         2.29720296921042   10.37257465707034   -0.62643321763744
O         2.21353977350342   11.57175319144114   -0.68369806626994
N         1.31671521512998    9.53817724830720   -1.05703362159916
C         0.08855265772571   10.04064402337784   -1.65129672064227
C        -0.78509538895401    8.79525934020012   -1.77340217368447
C         0.23642854741207    7.67185783800001   -1.96384402910650
C         1.39992829981857    8.10139734989726   -1.06777329676254
C         1.26216607522662    7.54702588564271    0.37434462040117
N         1.70967475363433    6.19026909510654    0.43358043046953
C         2.98277086827705    5.75565067631921    0.48935070574791
C         2.88102216880364    4.37564356148138    0.43792409207297
C         3.83204608591503    3.28829155188318    0.46044733528778
C         5.20076651181475    3.48989366733496    0.62096710013564
C         6.05394514341013    2.40461313422975    0.63799001093743
C         5.49281041770466    1.13977803363212    0.48716563967290
Br        6.57591244317281   -0.41210704002079    0.50090379937458
C         4.12250360434671    1.00759906466993    0.32502990168373
N         3.29736129131117    2.05299143454388    0.31478162471616
N         1.55550866689133    4.08724776941200    0.34909144238811
N         0.87221294752732    5.17271603998267    0.34501279283479
H         5.10178524818520   11.68558053135081    1.91565904457374
H         3.53226954374129   12.05440724223153    1.19237005002611
H         3.69256277344375   10.69335833493451    2.31135688350001
H         5.63115750721918    8.51701888614174   -0.02712663286328
H         4.97228699986251    8.64082761321514    1.61582601532941
H         6.38121808107569    9.59808758537273    1.15172889793955
H         6.10954195863388   11.54736975035055   -0.45527565738405
H         4.51531893667450   11.91617786678025   -1.12142545441131
H         5.37247013288680   10.45681855862628   -1.63741457634047
H         0.30420984639435   10.48025042670576   -2.63070121155778
H        -0.34288508830111   10.81755931761411   -1.01849106226387
H        -1.48217538408985    8.86615398134894   -2.60384890952633
H        -1.35575101202287    8.64084815899370   -0.85752549202860
H        -0.15123371755916    6.69116126169197   -1.69079550901066
H         0.56520057704947    7.63963500192127   -3.00228973050044
H         2.37439893753224    7.78254417934081   -1.45846908038492
H         0.21959037357306    7.57701803141017    0.69228443019445
H         1.87608236272612    8.15563007606994    1.04065493646864
H         3.81494170369285    6.42303878352956    0.55858821018343
H         5.58499833559372    4.49091542214560    0.73197804264139
H         7.11788766281304    2.52729881174662    0.76118539973241
H         3.67913480082577    0.03078984389002    0.19188812888173
C         1.18962503131138   -0.05011142679097    0.04014606641669
C         1.16669685805252   -0.85721541296131   -1.09062413005514
C         1.14961920913231   -2.24007491162446   -0.99301061482930
C         1.15308847529793   -2.84991212592621    0.25080474420157
C         1.17192401108097   -2.07572930922148    1.39226317810694
C         1.19075299399563   -0.68133257817902    1.30441137468091
C         1.21231337853098    0.17207818353126    2.49023966344721
N         1.19907097362502    1.49644731518019    2.24808888971997
C         1.19920686030928    2.35353915432430    3.25997376606912
C         1.21960285111534    1.96000345798491    4.58351010282952
C         1.24298053165467    0.59825109692151    4.85696454585289
C         1.23806046245158   -0.29757015928124    3.80701231720512
H         1.16596970038717   -0.40401558435416   -2.07098850464092
H         1.13393231448540   -2.84120132341336   -1.88943349042947
H         1.14006265334746   -3.92589139598562    0.32989027426615
H         1.17093188727720   -2.56437597689372    2.35407306341529
H         1.17138896626903    3.40329918381390    2.99801217501215
H         1.21584572995669    2.69280915887854    5.37350396686658
H         1.26147123978700    0.24510969337634    5.87643461124549
H         1.25370736829196   -1.35554251797741    4.00693381403573
C         1.23592783549560    2.25884199826791   -1.88389214178823
C         2.30683754904696    2.38730677037478   -2.75928420243650
C         2.10669487499331    2.64108943616507   -4.10794732243877
C         0.82296309208802    2.77651215023794   -4.61236842811342
C        -0.26246362041227    2.65346292298461   -3.76883393416008
C        -0.06502693441284    2.39532899930545   -2.41199806107724
C        -1.13962431098618    2.23818147622328   -1.44354049834740
N        -0.72233056849457    2.00638457584671   -0.17543686249448
C        -1.63437701074965    1.84270358422152    0.78298280488881
C        -2.99380272197609    1.89445676560822    0.54930157922764
C        -3.43765975994700    2.12753873488956   -0.74570344886252
C        -2.50073242560392    2.30204701233296   -1.74329380387639
H         3.32244876316296    2.28005155583603   -2.40115988653959
H         2.95661662797269    2.73082669402495   -4.76824434934290
H         0.67240732957004    2.97293180296462   -5.66266261958030
H        -1.25880950886327    2.75731924571653   -4.16961714624439
H        -1.26700530385535    1.65612752748883    1.78248193354610
H        -3.68747943627304    1.75070422148012    1.36120232752084
H        -4.49251315001655    2.16872336149774   -0.96740310953380
H        -2.81655678545219    2.48213811916021   -2.75730583200536
