77
 energy: -118.798443879433 gnorm: 0.000796386260 xtb: 6.4.1 (afa7bdf)
Ir        0.96864187162382    0.91437979553478   -0.10033690256554
C        -0.86398306059839   10.91307750675510    1.01482720354048
C        -0.79366006099700   10.34601424212233   -0.40600306257264
C        -0.21722513051527    8.96404872403826   -0.38243200323496
C        -1.03940539864757    7.85198476841331   -0.22694451795968
C        -0.50989754479460    6.57992823687821   -0.15752733951348
C         0.86795226248112    6.40244662848135   -0.24175218566139
N         1.38184452648546    5.09749947019883   -0.16743145231441
C         2.66386270089748    4.69282563005157   -0.02531891779465
C         2.59618707716904    3.31102432794732   -0.00534029691391
C         3.57851013332482    2.25338393826936    0.09800475981480
C         4.92315341211746    2.55382151405154    0.27693764491744
C         5.83667887253501    1.51813839803413    0.33870289958125
C         5.36596135916310    0.22808196858048    0.18555485558161
C         4.00500880616274   -0.01211371314179    0.00000981009656
C         3.54462055341852   -1.41169861517167   -0.21135006008762
N         3.11211577253107    0.98750056278073   -0.01292039909251
N         1.28839725902823    2.98431929502536   -0.13654154003573
N         0.57502471430268    4.04446681748311   -0.22819260865797
C         1.70491773364010    7.50108991850729   -0.40155160059636
C         1.15715966919812    8.76728175205398   -0.46754798926088
H        -1.28334801953425   11.91508130435442    0.99743666058670
H         0.12905012616437   10.96058488706055    1.45562089528901
H        -1.49026869319876   10.28556227626401    1.64460304331355
H        -0.17209858647937   10.99758908674244   -1.02179729579506
H        -1.79720644888435   10.32222639379729   -0.83303166940683
H        -2.10848753443429    7.98567431849606   -0.16154943050233
H        -1.14451986941904    5.71585753559240   -0.04125583227640
H         3.48996644435484    5.36421467986199    0.05667059474396
H         5.23579789039146    3.58135886238100    0.36222026134407
H         6.88701859774805    1.71380755764954    0.48523226960501
H         6.04812848263584   -0.60640272827329    0.20229639555401
H         2.82442443415447   -1.45154756879065   -1.02331648489868
H         4.38779532091285   -2.05869634409955   -0.43670186538077
H         3.04934831535360   -1.78969830401387    0.68055226778506
H         2.77317325731249    7.38064575727819   -0.48874462442105
H         1.80925991245939    9.61809959112195   -0.59426324336917
C         0.54811951331788   -1.06107242268343    0.11870179214446
C         0.18387788859198   -1.97423418380475   -0.86807050645823
C        -0.20149082704060   -3.26800890294559   -0.55912204258574
C        -0.24351397480015   -3.68632871110929    0.76140310616206
C         0.10607423780350   -2.80866191136755    1.76518028539487
C         0.50213370250753   -1.50321130371242    1.46091522022954
C         0.87368601706269   -0.54768035206845    2.50026505253039
N         1.05279002972758    0.72061108662942    2.08295627187285
C         1.37679102732793    1.65922268459668    2.96178716013494
C         1.55621671467065    1.40986453881405    4.30820582329513
C         1.39564175188765    0.10474924412247    4.75562434938479
C         1.05267227115892   -0.87596132057043    3.84783061720457
H         0.20264170893735   -1.67392723978580   -1.90626266689659
H        -0.47718478967067   -3.94972335771106   -1.34968119407822
H        -0.55319897616940   -4.69075659615374    1.00563296663425
H         0.05258832820326   -3.13952661321159    2.79109942405497
H         1.49137093391182    2.66381578042326    2.57479719360286
H         1.81570741609606    2.20853471021555    4.98352166374566
H         1.53658034149390   -0.13874300949152    5.79750309256254
H         0.93189849290960   -1.89382029974406    4.17849991126171
C         0.83121219788372    0.91419763774563   -2.11946377916494
C         1.84618280159824    0.78275865592117   -3.05852075575277
C         1.57966558275779    0.85236630714938   -4.41756540811946
C         0.28560569726350    1.05985663894913   -4.86891720959130
C        -0.74461940960858    1.19756708282388   -3.96101387963154
C        -0.48075390116344    1.12641257814213   -2.59292677443137
C        -1.48955525400814    1.25417418869647   -1.55384006455546
N        -1.01456581759831    1.12332659322931   -0.29323275988002
C        -1.85623034284998    1.22707281889115    0.73257376066042
C        -3.20702234307639    1.46456606795656    0.57675163125210
C        -3.71338765003807    1.60028907093775   -0.70939416169043
C        -2.84597000100797    1.49360423441331   -1.77680537133803
H         2.86713622107796    0.61940715745225   -2.74037939722495
H         2.38586250288492    0.74315222032878   -5.12800399360299
H         0.08430476087679    1.11243091761881   -5.92779050884159
H        -1.74975435362603    1.35760602982579   -4.31951278748459
H        -1.43787724262381    1.10994184495078    1.72248461463923
H        -3.84665332788752    1.53825237483142    1.44087098925049
H        -4.76401622891405    1.78460422722758   -0.87049208230760
H        -3.21121585792556    1.59547406015395   -2.78512682181947
