74
 energy: -126.312510103994 gnorm: 0.000430284461 xtb: 6.4.1 (afa7bdf)
Ir        0.69046336267925    0.91478698542662   -0.08239174684114
C        -0.15116061566876   12.71300444582422   -0.25017322738350
O         0.29535819210912   11.36180498305499   -0.22088230109842
C        -0.65175605064995   10.43021207722964   -0.33677126875218
O        -1.82530341962561   10.66890495647895   -0.46143963372625
C        -0.09491066026018    9.04599219898718   -0.29159159232666
C        -0.97926379727235    7.97853891140898   -0.42831845840092
C        -0.51582655413251    6.68062071875649   -0.38700320131540
C         0.84495427793442    6.44459210780699   -0.20368390258371
N         1.28712648928101    5.11274257958734   -0.14657388610586
C         2.55071947772966    4.63095730341643   -0.10422144845560
C         2.40168217661952    3.25824164326108   -0.03798501298807
C         3.31258159537672    2.13909998980581    0.03968666630230
C         4.69337509763461    2.29480985175712    0.13215338845436
C         5.50288584688669    1.17948740147755    0.21561797420698
C         4.88710931380120   -0.06872354731959    0.19755370435347
Br        5.90785011968151   -1.65785357720571    0.31378387715664
C         3.50730263392963   -0.15577918472524    0.09544573864464
N         2.72464984368410    0.91909177596163    0.02334733746055
N         1.06398137342290    3.01046482956362   -0.04624337878067
N         0.41581332605492    4.11008934799151   -0.10849840386429
C         1.73539884269524    7.50515494211815   -0.06522166651386
C         1.26286367804528    8.80247186980032   -0.11204671830726
H        -0.81486496142258   12.90930851623091    0.59374789646954
H        -0.69256499756949   12.91221640823410   -1.17656793774955
H         0.74178563859046   13.32879140876411   -0.18673245658339
H        -2.02811841513054    8.19101090534095   -0.56610627681696
H        -1.18548893018067    5.84229628967245   -0.49255706527318
H         3.42302830630389    5.24546816382274   -0.13787100726089
H         5.12172162094857    3.28391395191376    0.13958658196556
H         6.57478634360860    1.26703936120561    0.29024819536881
H         3.02006099719334   -1.12030971963273    0.06466019625282
H         2.78888839841764    7.33315001711723    0.08696557672107
H         1.94346286628183    9.63143069585372   -0.00528498514691
C         0.50660984909691   -1.10225314371014    0.01035788653752
C         0.34463549371080   -1.99572879027301   -1.04174215484145
C         0.25501863281555   -3.36212506000280   -0.82509763202957
C         0.32322848823757   -3.86878090482706    0.46244044545089
C         0.48120501752794   -3.00792275474989    1.52847980816121
C         0.57605414807814   -1.62951965326410    1.31995904624346
C         0.73962243490718   -0.68752494860726    2.42485656975981
N         0.71301571881378    0.61437593153633    2.08229202797897
C         0.82989468968546    1.54635882964915    3.01848513410327
C         0.99513902142882    1.25509452582337    4.35826840959251
C         1.04535960659924   -0.08190079584991    4.73204806207147
C         0.91447736801543   -1.05534635727108    3.76245908014789
H         0.28992966946960   -1.62470731395242   -2.05459773460668
H         0.13048604571000   -4.03123731812179   -1.66292866880597
H         0.25069336308651   -4.93150305214148    0.63433390906454
H         0.52320091055605   -3.41515513801147    2.52665293222392
H         0.77795069664848    2.57366775447390    2.68119742484972
H         1.08302032046573    2.04634781575795    5.08444601305360
H         1.18270376436384   -0.35619301252477    5.76665553945874
H         0.95277906136521   -2.09519256223879    4.03974463353528
C         0.58346717544117    1.02243491329495   -2.10412817231423
C         1.62016918959943    0.98867969853351   -3.02726352034177
C         1.37691771903074    1.13307912922329   -4.38509494575310
C         0.08440451881625    1.31869304709945   -4.84930050096015
C        -0.96758131409362    1.35580305873854   -3.95654650339473
C        -0.72732850916140    1.20859561476831   -2.59008796061469
C        -1.76350601140599    1.22167616774757   -1.56842458268029
N        -1.30709905020996    1.04676653928601   -0.30469011141177
C        -2.18070430897676    1.03652968070514    0.70190738486826
C        -3.53983664247802    1.19863646346589    0.52296033966923
C        -4.02388911004427    1.38073471316406   -0.76592454305472
C        -3.12629245623307    1.39185290720816   -1.81373631297517
H         2.64056693390770    0.83763077447622   -2.70006464890546
H         2.19998119532722    1.09812309563194   -5.08340927201376
H        -0.09927136259327    1.43024718550008   -5.90670029044213
H        -1.97123348866137    1.49716119153443   -4.32631158005001
H        -1.78039187729988    0.88743730795283    1.69520410284860
H        -4.20293739239830    1.17967970616256    1.37205175278921
H        -5.07995410370726    1.50912519233635   -0.94443412517791
H        -3.47411782244201    1.53000195248794   -2.82388279911056
