77
 energy: -118.790361670849 gnorm: 0.000208511117 xtb: 6.4.1 (afa7bdf)
Ir        1.22583171803046    1.10434397647017    0.16321556551412
C         3.88731163662734   -1.11665905408867   -0.02697179888499
C         4.27662213794204    0.26612530594912    0.36370263261108
C         5.60811416176747    0.52381869668714    0.68767753809557
C         6.01746545650775    1.80424005771604    1.00700605170102
C         5.07700145526151    2.81694042613838    0.96312928949705
C         3.76361753015498    2.49873657697666    0.64180221107806
C         2.75600539929421    3.53361677807389    0.54596932958300
C         2.77178798482617    4.91362061353745    0.65898895108839
N         1.49853729389887    5.28410318806791    0.43225599345915
C         0.94683667790392    6.62620956513315    0.44120870279087
C         0.72521187863348    7.06634040704049    1.88579883550885
C         1.85226116364265    7.51609018187067   -0.38636406232949
C         2.60340609513995    8.54884283997075    0.15536786197010
C         3.42611216291578    9.31208224365905   -0.65746579144851
C         3.51203018078925    9.04673313575576   -2.01232376339408
C         2.76882900217892    8.01302536437186   -2.55858120868784
C         1.94411246493899    7.25350745525440   -1.75039432270685
N         0.74002497350255    4.23198211979127    0.19677487264814
N         1.47865522321527    3.18450300033019    0.25964934613724
N         3.35256016017625    1.23675422824221    0.37641863736272
H         3.41478885213399   -1.62971530953998    0.80878134322742
H         3.17006838924837   -1.09130842684446   -0.84248612121579
H         4.76366047248609   -1.68548345474441   -0.32477478771193
H         6.31564227046734   -0.28947250104026    0.68035126971966
H         7.04378470164193    2.01243318286185    1.26430233988321
H         5.34509380027531    3.84000009661315    1.16908562086020
H         3.55031541156476    5.61859288347122    0.85703346072793
H        -0.02612025506363    6.53805608933686   -0.05676384753785
H         1.65656143968487    7.06113381496347    2.44791559801511
H         0.02310469327180    6.39135250839809    2.37109958639051
H         0.30506594085487    8.06747754904437    1.90369917997631
H         2.54933409926827    8.77700174863381    1.20799168621721
H         4.00014004678334   10.11769775407397   -0.22600259243968
H         4.15232017358732    9.64482236073029   -2.64173566661512
H         2.82696044348860    7.80133200170853   -3.61505190671538
H         1.36013256222343    6.45058734838174   -2.17918056274759
C         0.87645218866136   -0.89355066781282    0.27927328154335
C         0.57166528556606   -1.77222781993811   -0.75785310112537
C         0.22956437816127   -3.09271560122111   -0.51919827721670
C         0.17362201075726   -3.57457348920295    0.77899284255856
C         0.46434615941078   -2.73247967327093    1.83091922233477
C         0.81480151270163   -1.39966890753184    1.59762523055511
C         1.11289306036697   -0.47937267452049    2.69089372372620
N         1.22587052383680    0.81640089285663    2.34214138595216
C         1.47322309375001    1.72558070887690    3.27519109729673
C         1.64032938439022    1.41831559969009    4.61087916963704
C         1.55072949261233    0.08433660359445    4.98783431188693
C         1.28431635201630   -0.86613059585253    4.02401479726644
H         0.60355517830015   -1.42287035589329   -1.78025067585130
H        -0.00147053089095   -3.74587019640787   -1.34722025573000
H        -0.10227497140823   -4.60039012335409    0.96865202000006
H         0.39812144918781   -3.11248191193478    2.83890941456499
H         1.53337428416620    2.75404145068073    2.94255022618887
H         1.83667055201763    2.19478089270650    5.33196930430889
H         1.68669366609399   -0.20400928968067    6.01883226107596
H         1.21872122404883   -1.90527375651513    4.29959548699578
C         1.18029604805884    1.19640412524125   -1.85785897601808
C         2.24364053036054    1.17221153017519   -2.75128406881589
C         2.03602876904384    1.28878404252449   -4.11744774090301
C         0.75353791220787    1.43665508228087   -4.62219480187674
C        -0.32379645720766    1.47103624429603   -3.76018719780479
C        -0.11906961998972    1.35339654054430   -2.38523822765067
C        -1.18037436478478    1.37712953167942   -1.39167508087159
N        -0.75370979938586    1.23261093193091   -0.11526210164502
C        -1.64508138192977    1.24500262727386    0.87315910967274
C        -3.00073568200414    1.39653594777246    0.66215180387837
C        -3.45788833750502    1.54238469065978   -0.64123737144369
C        -2.53862272257063    1.53327842353816   -1.66990338622189
H         3.25739645500426    1.05869766946499   -2.39124108947030
H         2.87947294102130    1.26280223556305   -4.79165723293528
H         0.59791404943441    1.52421767038181   -5.68646495915036
H        -1.31938388077308    1.58747816133938   -4.15984165783968
H        -1.26338350409386    1.12160207489168    1.87713067423551
H        -3.68178978485551    1.39645387980293    1.49723309758127
H        -4.51074865606217    1.65952695444576   -0.84495974782634
H        -2.86508060697824    1.64561579792971   -2.69038998249161
