77
 energy: -125.910935519672 gnorm: 0.000708764612 xtb: 6.4.1 (afa7bdf)
Ir        1.00531409435983    1.01165600874640   -0.14779766191395
C        -2.56498919486323   11.79641222656546   -0.13320935797622
O        -1.98724688379192   10.49584476945703   -0.13533379528292
C        -0.65419800969878   10.44976260759682   -0.11943821994795
O         0.05593742433222   11.42222380605417   -0.10295147152429
C        -0.13372554960477    9.05135403666088   -0.11913651300491
C        -0.97783837862821    7.94460772458442   -0.13418527700133
C        -0.44577951492041    6.67140825157934   -0.12070707419865
C         0.93646642776131    6.49863961016758   -0.09327283593454
N         1.44255099561964    5.18943378890862   -0.06537497232492
C         2.71474437908244    4.76872678800437    0.12612867829508
C         2.64106020796226    3.38967287291210    0.07198673794794
C         3.61247428198089    2.32147936881047    0.17914113411368
C         4.95058756424689    2.60402294186667    0.42287959743372
C         5.85358271382252    1.55857001245389    0.48192365562939
C         5.38091988815459    0.27970880423445    0.25819452533627
C         4.02675366584162    0.05785272610344    0.00951914386773
C         3.56662068693241   -1.32766458254229   -0.27979140934967
N         3.14183447614027    1.06469652234385    0.00331033768810
N         1.33986776969662    3.07754120670230   -0.14972952379689
N         0.63668574695344    4.14355810104207   -0.22579160794571
C         1.78713498098993    7.60020467318215   -0.09078235400605
C         1.24643960002004    8.86997103757706   -0.10219396442016
H        -2.23847129312162   12.35657987064291   -1.01117289212124
H        -3.64150499446645   11.65012541542682   -0.14982696141897
H        -2.26398021055377   12.34213984930921    0.76286119893558
H        -2.04580034796263    8.08876352854073   -0.15357367216028
H        -1.08196168276514    5.80074222743702   -0.13154930754344
H         3.53795911007890    5.42877580839773    0.28879307209651
H         5.26774674352330    3.62470022159375    0.55857931774906
H         6.89829840775936    1.73926951108759    0.67862841621025
H         6.05591555886943   -0.56066035329047    0.26795869158812
H         4.41373340442456   -1.96903436329629   -0.50469234823689
H         3.03821886981336   -1.74215471993144    0.57594656328735
H         2.87564355550399   -1.32604594538581   -1.11791117304766
H         2.85857019604933    7.48048387382566   -0.08917590473825
H         1.88169145594225    9.74229387443493   -0.09898167188343
C         0.57621854862170   -0.96423631668863    0.05746675384759
C         0.24143302376140   -1.87577250450667   -0.94117675714802
C        -0.14152251427814   -3.17369573074878   -0.64669108303193
C        -0.21103839663296   -3.59769468004418    0.67072452318122
C         0.10457306977958   -2.72017194708684    1.68587558054111
C         0.49685583406281   -1.40993568226311    1.39688480757409
C         0.82795514379836   -0.45436685999278    2.45011507255953
N         1.02529105687074    0.81354474645294    2.04032874194716
C         1.31334342015214    1.75182792280621    2.93224019212064
C         1.43482613034753    1.50332755116686    4.28504399794770
C         1.25131970103553    0.19901625362915    4.72635860307903
C         0.94723292147222   -0.78155120249059    3.80470990260259
H         0.28321191650260   -1.57178286409092   -1.97745713829117
H        -0.39209250751271   -3.85403207484989   -1.44664108017892
H        -0.51609263902504   -4.60612403003396    0.90374268558290
H         0.02863040608486   -3.05578051944292    2.70873092827395
H         1.44604154064555    2.75636651772289    2.55106344464080
H         1.66624750398430    2.30239253087213    4.97007309977423
H         1.34392808286978   -0.04344554559484    5.77394303082726
H         0.80881649473442   -1.79854175182117    4.13115292644132
C         0.92051422477757    1.01047363052605   -2.17086226513190
C         1.96212247801504    0.89493887394038   -3.08231860556010
C         1.72997184430848    0.95195645758118   -4.44837377279927
C         0.44427809706044    1.13035370126208   -4.93453077211067
C        -0.61143717987389    1.25505007412609   -4.05441566718913
C        -0.38211170960736    1.19748943581927   -2.67945712946417
C        -1.41976108220735    1.31848341356139   -1.66838631936293
N        -0.97475903612139    1.21476460116205   -0.39426075767514
C        -1.84385470481999    1.32042447433168    0.60834954150665
C        -3.19433865587370    1.53029061521950    0.41481840106297
C        -3.67061860928177    1.63408939408207   -0.88578271239472
C        -2.77440929484480    1.52799757280760   -1.92917630113208
H         2.97779196927256    0.75528525316915   -2.73715967138964
H         2.55673905936809    0.85536544584683   -5.13652132980508
H         0.26958852022006    1.17157302273353   -5.99854340689085
H        -1.60943254512925    1.39455155549334   -4.44024002765567
H        -1.44835079004879    1.22758696317749    1.61018649214938
H        -3.85683779640788    1.60627742775503    1.26127837435242
H        -4.72043903494027    1.79364973734218   -1.07596797763078
H        -3.11578163663266    1.60594643525150   -2.94793042555727
