68
 energy: -112.862748333400 gnorm: 0.000480807771 xtb: 6.4.1 (afa7bdf)
Ir        0.61365450085459    1.02209190713082   -0.13901413621895
Br        5.96149563036035   -1.25983872075881    0.26390133430374
C         4.85543180286749    0.27189292017810    0.15565062610245
C         5.40188089192453    1.55170290766548    0.18025200673802
C         4.53277112181677    2.62115320910796    0.09578847154784
C         3.16309448955269    2.39055266533688   -0.00558827667527
C         2.19403238753591    3.45775671488277   -0.10378092115256
C         2.27102725258937    4.83337468837438   -0.22690000781580
N         0.98525541838779    5.24389184981825   -0.29224550612094
C         0.47993453847232    6.54827316415815   -0.43266321747478
C        -0.83764801355866    6.70542592406659   -0.85054095574129
C        -1.35682617236981    7.97789023222975   -0.99476336011281
C        -0.56993817810331    9.08711345646421   -0.72672688533641
C         0.73963359468691    8.92350289183613   -0.30556628521834
C         1.27200740116144    7.65588633154197   -0.15316376179059
N         0.16686499254036    4.20206737462018   -0.21198085736191
N         0.87168688729430    3.14015914112381   -0.10130791967279
N         2.64262713365534    1.14013576161819   -0.02336649278451
C         3.48278219800584    0.10968113246072    0.05116210409964
H         6.46707841393996    1.69763873479057    0.25929092470946
H         4.90621582115450    3.63221356984864    0.10830941367874
H         3.10679660393419    5.49458136372606   -0.29547965060682
H        -1.43118197380606    5.82918243341101   -1.05740511745514
H        -2.37733457638824    8.10354153754946   -1.32038800680880
H        -0.97718491746864   10.07899587480657   -0.84313637156884
H         1.35135145701731    9.78535908612844   -0.08988492690975
H         2.28676211407490    7.54012329969993    0.19402967828653
H         3.04959988623873   -0.88016068155129    0.01735010878165
C         0.54707144258491   -1.00277502764529   -0.07279446622756
C         0.46735713457593   -1.88901438798269   -1.14019154032136
C         0.45990713939437   -3.26130672285733   -0.94388626788638
C         0.52990342513344   -3.78114061176709    0.33820968588295
C         0.60726804158441   -2.92762597636429    1.41897368097522
C         0.61856683580436   -1.54305590501837    1.23117860389366
C         0.69998111489229   -0.60756677138656    2.35056589934832
N         0.63253677192329    0.69600037397777    2.01975438666649
C         0.67890193497282    1.62170799184869    2.96825998867906
C         0.80512828901978    1.32240659903383    4.31055640295004
C         0.89079019846279   -0.01568643573621    4.67363517218394
C         0.83628744125214   -0.98282521847379    3.69053669341213
H         0.41279689473015   -1.50738209207691   -2.14907648053778
H         0.39874068589836   -3.92436099838802   -1.79349269650840
H         0.52268465729459   -4.84874971628079    0.49426577609731
H         0.65469112851248   -3.34649397270318    2.41207738063127
H         0.60179628611597    2.64966654175618    2.63806590518432
H         0.83559349855073    2.10843301867753    5.04702305165405
H         0.99598034534597   -0.29580283121550    5.71039407184143
H         0.90184943606376   -2.02343462979393    3.95961674683665
C         0.50892638984859    1.14339454587958   -2.15937207821231
C         1.54995899021399    1.19034111735740   -3.07738755344290
C         1.30405979550769    1.32155635618169   -4.43594556576943
C         0.00375820601484    1.41159660393647   -4.90681398404488
C        -1.05260425919447    1.36860702421377   -4.01957287276708
C        -0.80940443040384    1.23584119703276   -2.65216065900285
C        -1.84927881073275    1.17514280706161   -1.63618451197644
N        -1.38887839066059    1.03529606870389   -0.36953065118297
C        -2.26564435831312    0.97044687195730    0.63226993934649
C        -3.63168135872416    1.03858321655337    0.44561017264062
C        -4.12001621450592    1.17954521331983   -0.84675900085637
C        -3.21931029329460    1.24864380777587   -1.88956826197790
H         2.57713009051159    1.11423745187961   -2.74516578167172
H         2.13130358580602    1.35063079328292   -5.12958199436633
H        -0.18225857172629    1.51141950310763   -5.96499296321927
H        -2.06198714012622    1.43619215919526   -4.39472110363805
H        -1.86245586518534    0.85429121847102    1.62873497248673
H        -4.29651355284462    0.97893177755856    1.29148133726691
H        -5.18150044112663    1.23230936444595   -1.03160770803655
H        -3.57000977953268    1.35720190422403   -2.90233773774449
