74
 energy: -119.191922743705 gnorm: 0.000215230351 xtb: 6.4.1 (afa7bdf)
Ir        0.80315735885669    1.18820113977442    0.36913425967583
C         0.40396380667958    7.19600652064927    1.98780771182587
C         0.60869846532054    6.77297123020643    0.53499402811311
C         1.53433438644513    7.65181500403283   -0.28022385495173
C         1.57447077284362    7.45033344054507   -1.65706813901489
C         2.42038612298450    8.19973389117075   -2.45301842791469
C         3.23721950402208    9.16176642169625   -1.88153601541143
C         3.20214663297417    9.36729940076238   -0.51392592407192
C         2.35796955860993    8.61427483565020    0.28616406840816
N         1.12737575784958    5.41656065105109    0.51026234979482
C         2.41035440830962    5.02323776822042    0.59760205035241
C         2.35133965306785    3.64020138002557    0.56525560350824
C         3.33225023165437    2.58081578217572    0.61649546479077
C         4.69620586160784    2.82360453481119    0.75876758815628
C         5.57778391274690    1.76212940621612    0.80672991163625
C         5.04969376988179    0.47859298258729    0.70222727999227
Br        6.17374973005439   -1.04288457661876    0.76293678147515
C         3.68267753935312    0.30486884086732    0.55367905138691
N         2.83021270757016    1.32738140228418    0.51700824374082
N         1.03649595015197    3.31093895420494    0.46378365863923
N         0.32280222650099    4.37567746127250    0.43357058712383
H         1.33347666587525    7.13836649325563    2.55017347697294
H         0.02940657538252    8.21457799110435    2.02357695077531
H        -0.32808089732912    6.54356723278905    2.45903047592020
H        -0.36910210263171    6.71893527266236    0.04207798298672
H         0.93401980269484    6.70329514084253   -2.10542970196262
H         2.43823977694064    8.03598296572805   -3.51935767850292
H         3.89524089637770    9.75094975655971   -2.50090993326849
H         3.83315589147910   10.11750619227587   -0.06265647767996
H         2.34480033396864    8.79457143054410    1.34933765260654
H         3.22391020521994    5.71371294278925    0.65785782781784
H         5.05440095082229    3.83783386010135    0.83016951482036
H         6.63882200951402    1.91692259194782    0.91833204698570
H         3.26368650397414   -0.68681281885084    0.45578745537955
C         0.76047230463130   -0.83666813708092    0.43903572896237
C         0.66748912233602   -1.72759412449854   -0.62364682408853
C         0.67668144479778   -3.09915090737746   -0.42264837234358
C         0.77905156240327   -3.61410387787610    0.85936740398718
C         0.86946914187728   -2.75621922074693    1.93560461287086
C         0.86183639952389   -1.37221720566774    1.74299656253682
C         0.94686473493749   -0.43362268614881    2.85943403166542
N         0.82097485966521    0.86633743947368    2.53252110535628
C         0.86097339518638    1.79254921344856    3.48059614520664
C         1.04186795679308    1.49894742320520    4.81768909239120
C         1.19284998036674    0.16518937817002    5.17574704699898
C         1.14226428706648   -0.80323046035959    4.19388743761254
H         0.58936544197807   -1.34991059951773   -1.63252675442889
H         0.60278600648238   -3.76583758449312   -1.26843958236352
H         0.78561451161520   -4.68123164740333    1.01883080322763
H         0.93899856006839   -3.17086767869892    2.92922259287676
H         0.73244710694235    2.81671839225372    3.15445423790690
H         1.06528972127896    2.28546654373183    5.55397464152191
H         1.34531524805032   -0.11031672137239    6.20789027294497
H         1.25909457793121   -1.84035367801646    4.45911246530681
C         0.71721526558247    1.30571483469449   -1.65154935778901
C         1.76700375498224    1.36818350321562   -2.55850256429467
C         1.53317718882016    1.48825541042320   -3.92023207551153
C         0.23662692542289    1.55327184259319   -4.40556743641540
C        -0.82838697670881    1.49426215509503   -3.52962606163004
C        -0.59730190201807    1.36958395756134   -2.15939152716309
C        -1.64620869936154    1.28657925688723   -1.15451074707648
N        -1.19443067927048    1.16758654656383    0.11743846769217
C        -2.07888180126823    1.08160853063610    1.11099914629242
C        -3.44431219787495    1.10443337535352    0.91007736586998
C        -3.92371814529858    1.22161996750883   -0.38809032289795
C        -3.01515344341898    1.31479952295500   -1.42211910752527
H         2.79159952927152    1.31360135309269   -2.21462734559317
H         2.36704902766683    1.52857415757103   -4.60538525620372
H         0.06032889774123    1.64604910639908   -5.46609781711070
H        -1.83487315431773    1.54354135546718   -3.91529778411933
H        -1.68155124115897    0.98406029915048    2.11194005033747
H        -4.11576867911706    1.02775186978109    1.74935314879001
H        -4.98439131753370    1.23742185042504   -0.58395416663458
H        -3.35885568584040    1.40599472025710   -2.43898112728950
