78
 energy: -119.622419468219 gnorm: 0.000309756741 xtb: 6.4.1 (afa7bdf)
Ir        0.99094628837886    1.15703671029178   -0.07999678224989
C         6.64709115721092    4.27883811696231    0.97533496444021
O         5.29173048065665    3.99637544500676    0.67690435872613
C         4.88246884570053    2.71170704292318    0.68367008069031
C         5.68382941658745    1.61202931071506    0.97392918083990
C         5.11424390734501    0.34852251329701    0.94035064735765
C         3.77732490739169    0.20357453463056    0.62665643125075
N         2.99093943086708    1.24561332604874    0.35059199642052
C         3.52667981395294    2.48120280244401    0.37272426182773
C         2.61718982874096    3.55695282517974    0.04945249130266
C         2.74510320223835    4.91961836529338   -0.15425951958002
N         1.49997866721863    5.33784416417606   -0.44814212390760
C         1.04656525389941    6.66612508313833   -0.78859887881761
C         1.48449284313093    7.70050432573191    0.26403806711551
C         2.68682690509115    8.51626438479457   -0.20096500406974
C         2.34520194771357    9.32016141231628   -1.46016199779171
C         1.39248402894843    8.54960224923386   -2.38466934414702
C         1.54493190179719    7.04503685531856   -2.19043382999717
N         0.65381380200349    4.32541163567382   -0.43049412078851
N         1.30451863773155    3.25964933808000   -0.13807183772213
H         7.31900335047758    3.81149982450762    0.25138110815158
H         6.90801214379684    3.95668745883922    1.98644083029126
H         6.74102541832541    5.36082671344471    0.90770169879742
H         6.72695956219595    1.72783521143766    1.21679130422500
H         5.71269124850131   -0.52171271911296    1.15401225114781
H         3.31796282705913   -0.77237994496586    0.58227453140130
H         3.59474638174867    5.56294965691626   -0.10486046464952
H        -0.04524892436060    6.58850969956527   -0.80304096853264
H         1.71052630824783    7.19362204398469    1.20473346962556
H         0.65534838584127    8.38272028289852    0.45301858661646
H         2.99304965236941    9.19452289070245    0.59586189774025
H         3.53107363119270    7.85420936205331   -0.40072007434134
H         3.26946739238916    9.55599270781380   -1.98860922835337
H         1.88278287779440   10.26604679071574   -1.17826821307199
H         1.59285788228615    8.80822740733293   -3.42384341803198
H         0.35765745508690    8.82394604920082   -2.17379763385526
H         2.59367061553270    6.76497929184110   -2.30468796847560
H         0.97066425137211    6.49901996015654   -2.94022514389058
C         0.81391519212887   -0.85274112433736    0.10607005428306
C         0.81284017608915   -1.81006463352051   -0.90252409505514
C         0.65650755563683   -3.15842771939133   -0.62360912727936
C         0.49224549036937   -3.58474161228271    0.68450253363769
C         0.49151503499082   -2.66142317568080    1.70893049779005
C         0.65339736185073   -1.30053956151882    1.43710156680069
C         0.65638901193492   -0.29234374496796    2.49416921700663
N         0.68823040693314    0.98567726110154    2.07168571583563
C         0.68058745944647    1.97355093792653    2.95559285196166
C         0.65281445231591    1.76597782161545    4.32084601761424
C         0.63544465560920    0.45499437851835    4.77962637619807
C         0.63452250051597   -0.57673637199200    3.86295530857651
H         0.93714281441172   -1.50170789145931   -1.93027370134293
H         0.65755324064165   -3.87739034619181   -1.42909396450442
H         0.36196894708791   -4.63343316027516    0.90335939631896
H         0.35234400446872   -3.00510313961331    2.72239460188458
H         0.68778919390447    2.97727378543262    2.55076059812329
H         0.64613978059328    2.60052827787889    5.00266258372987
H         0.62159154763267    0.24559974974402    5.83825611127637
H         0.62396460004089   -1.59772890293096    4.20562132731088
C         1.20473150463010    1.16281150938681   -2.09290510285973
C         2.37602737696775    1.13428615880592   -2.83933916081073
C         2.34859141390336    1.22150957293446   -4.22286928173670
C         1.14177982049292    1.34393929617536   -4.89364114398110
C        -0.03996410710551    1.37166162167856   -4.18122215157423
C        -0.01653678860250    1.28066153087675   -2.78928323634399
C        -1.20257207126059    1.28876650434635   -1.94644447687932
N        -0.94681093322035    1.19909064379333   -0.61905496011976
C        -1.96902721127764    1.18869958022602    0.23574513425790
C        -3.28821784651857    1.26332755392872   -0.16380448251387
C        -3.56764424150938    1.35436323891033   -1.52103506035212
C        -2.51497931911431    1.36837278612668   -2.41277659808601
H         3.33412517688401    1.03289588485412   -2.34671831971168
H         3.27320958358870    1.19303315155080   -4.78066003505031
H         1.12621656906147    1.41358988990040   -5.97049110043121
H        -0.97553381252781    1.46461474600019   -4.71087568135710
H        -1.72624860774275    1.11133462978280    1.28656727009893
H        -4.07732108705898    1.24649358677990    0.56983222042824
H        -4.58654448800014    1.41036291439931   -1.87098295337190
H        -2.70263708466516    1.43639724289081   -3.47141435548598
