78
 energy: -124.522034045188 gnorm: 0.000236575505 xtb: 6.4.1 (afa7bdf)
Ir        0.63468844998067    0.71443826620745   -0.26310543280930
Br        6.06089012068330   -1.38727717938863    0.10071693921013
C         4.89917983174286    0.10595598296161    0.04307824072232
C         5.39643808611710    1.40224200480027    0.14216214635385
C         4.49003795981476    2.44232330168535    0.09019787643379
C         3.13210222137651    2.16646195503936   -0.05034790773479
C         2.12685839687616    3.20150670870162   -0.11751629389489
C         2.15207051844799    4.58622468394123   -0.08533369119333
N         0.86129831547309    4.94891000618366   -0.18809768301737
C         0.30240402091676    6.28749183158192   -0.23468521596115
C         0.19794121156706    6.75603300441496   -1.68885109476276
C         1.56497236155418    7.16309098229428   -2.22228307072934
C         2.09093733395310    8.35126216402741   -1.42376063348041
C         2.01247715907502    8.13535912628261    0.06137061674882
C         2.79078867416803    8.91626302854876    0.91104943092621
C         2.72536051783648    8.76609396424117    2.28252403988602
C         1.87045337945028    7.82526153577997    2.83481264879658
C         1.09002431603088    7.04616171937336    2.00396051966950
C         1.15145762664641    7.19582840760931    0.62146261042551
N         0.08340212363533    3.88781876898266   -0.27624313525995
N         0.82232157388125    2.84062196532519   -0.23728524754051
N         2.65959239835923    0.90063314380824   -0.13665771063840
C         3.53599531069739   -0.10134573710442   -0.09746138416365
H         6.45365282602702    1.58267442888810    0.25163012901472
H         4.82418172383385    3.46502108497361    0.15801792031124
H         2.94789585567017    5.29165711306722    0.02034490303871
H        -0.70493478311801    6.19415436140589    0.18739925967954
H        -0.23940564542588    5.95853173564692   -2.29282566082180
H        -0.47429046856285    7.61428630223705   -1.72135376295891
H         2.26001121201505    6.32219868000997   -2.15332552329206
H         1.48481186259537    7.43399675117637   -3.27515996065025
H         3.12168703680414    8.57211046421039   -1.70756002870927
H         1.49553638940973    9.23677818413370   -1.66736301086842
H         3.45486894508089    9.65182833429599    0.48194456880940
H         3.33740861984517    9.38261391905453    2.92221122844824
H         1.80974264436502    7.70497794416499    3.90520658868597
H         0.41383719558106    6.31520038428733    2.42619175383507
H         3.13944156868487   -1.10305822573785   -0.18640150366061
C         0.63513213601410   -1.30638980756853   -0.10863781427829
C         0.56321309277677   -2.24342305415790   -1.13283418300656
C         0.59856275322882   -3.60480713910049   -0.87432593036384
C         0.70574036281917   -4.06322801741863    0.42856239799161
C         0.77744504241267   -3.15900328993314    1.46747710589779
C         0.74517993533699   -1.78465641678602    1.21668054787804
C         0.81323500918030   -0.79949712490395    2.29340896658040
N         0.67052466368546    0.48409825353801    1.91336701447371
C         0.69471097388660    1.44859307720474    2.82298020236972
C         0.87497076371997    1.21267582418138    4.17148483258510
C         1.04321140204371   -0.10306427941629    4.58418780218551
C         1.00951448175344   -1.11126777444213    3.64253353246411
H         0.47999056631203   -1.91036306697996   -2.15693294979728
H         0.54027609324211   -4.30790004643521   -1.69136541988276
H         0.73082598315495   -5.12234658765733    0.63321357649630
H         0.85178256144660   -3.53014329157372    2.47778365055233
H         0.55294647874961    2.45698676925555    2.45575871094184
H         0.88488472127462    2.02899373993956    4.87487752973314
H         1.19574595580900   -0.33421131151986    5.62718686465983
H         1.13964647198005   -2.13484107261776    3.95061583429702
C         0.52923359866276    0.74019667409403   -2.28610318096752
C         1.56946888210623    0.77853081879758   -3.20546035749827
C         1.32135495989305    0.82438798941240   -4.56916065468810
C         0.01956485757532    0.83702249999702   -5.04460632230608
C        -1.03622879863906    0.80142956987930   -4.15641302296590
C        -0.79072655657961    0.75208217032142   -2.78389280462934
C        -1.82909757529972    0.69905161621984   -1.76622438695452
N        -1.36391686941293    0.64528528249707   -0.49468342541037
C        -2.23783650311275    0.59119898270196    0.51028870365161
C        -3.60523893504823    0.58447947774801    0.32209429494567
C        -4.09828880473697    0.63624717906160   -0.97518171849695
C        -3.20073283778477    0.69554503639684   -2.02125943825864
H         2.59788922805282    0.76290079161189   -2.86916343001557
H         2.14807350840761    0.84710983220400   -5.26373013435152
H        -0.16783766547081    0.87067067806640   -6.10674565276517
H        -2.04685589875994    0.80910457313221   -4.53423619929893
H        -1.83025909028722    0.54517306549980    1.51076013420866
H        -4.26754939438610    0.53575347271494    1.17068398077449
H        -5.16085134018190    0.62853597462721   -1.16103175528868
H        -3.55511910491615    0.73641783429440   -3.03771237031847
