76
 energy: -127.331579378801 gnorm: 0.000245730469 xtb: 6.4.1 (afa7bdf)
Ir        0.43794335052179    0.84184654486392   -0.29805264395853
C        -3.93966046802068    8.82812619778318   -0.40016159924052
O        -3.21655224511141    7.61596090916326   -0.36114802561169
C        -1.86677648897439    7.66495388805704   -0.36441352813906
C        -1.09757200350972    8.82521195953778   -0.39326256786568
C         0.28334505648804    8.74838413103732   -0.39231221127176
C         0.95417543800693    7.53151434754004   -0.36085538195442
O         2.31243007263788    7.41184827631265   -0.35817456123451
C         3.09718239527935    8.58563951914473   -0.42591659720260
C         0.17554943551899    6.35974043597584   -0.32983193298619
N         0.73675549146581    5.07175854238099   -0.29262546463099
C         2.02840840596865    4.68135209023780   -0.22571008112653
C         1.97836174289757    3.29822631568931   -0.20355946558531
C         2.96542419841514    2.24652841073616   -0.13272597752992
C         4.33130591865717    2.49911189174282   -0.02806842697106
C         5.21845600391547    1.44355131832011    0.03871357429928
C         4.69454851417203    0.15496834161887   -0.00684670646535
Br        5.82811539322549   -1.35864561555531    0.08030514694091
C         3.32549905045135   -0.02977669406495   -0.11637128800361
N         2.46813753131318    0.98747358730550   -0.17343760040403
N         0.66517606309511    2.95473253852920   -0.25945138802982
N        -0.06010977523837    4.00599566725215   -0.30953383052941
C        -1.20976234504903    6.43825849268173   -0.33305944924737
H        -3.72505564831984    9.39254042234530   -1.31197051746842
H        -3.72872959127087    9.44860793679049    0.47547389168990
H        -4.98934017563460    8.54152377616516   -0.39319896233338
H        -1.55732904099634    9.79923855006832   -0.41723366025663
H         0.84225612249152    9.66882084403248   -0.41603855933064
H         4.13094536636826    8.24417807614550   -0.43255196542124
H         2.93443506594125    9.22530628009786    0.44525460645886
H         2.89712933780173    9.14653778358608   -1.34210826020308
H         2.84276990076221    5.36929122587348   -0.20202086265032
H         4.68495929141665    3.51691802927914   -0.00014168531992
H         6.28111678142971    1.60595052390728    0.12066640938022
H         2.90862781111696   -1.02594388267852   -0.16702648565031
H        -1.79105656580772    5.53177647314312   -0.31365657579112
C         0.39479267838751   -1.18138227676555   -0.18119063214657
C         0.30886905050209   -2.09808340726482   -1.22289554260397
C         0.31787991575162   -3.46447669844477   -0.99005055553341
C         0.41193435898602   -3.94960050975856    0.30420585651074
C         0.49620247307649   -3.06671578247568    1.36040841040214
C         0.49042822755708   -1.68764395573585    1.13527719110171
C         0.57202444048497   -0.72325647841926    2.22979728421256
N         0.45653359473480    0.56929951364622    1.87081608915315
C         0.49231656254662    1.51786767894549    2.79665645873154
C         0.65880228904982    1.25479162057247    4.14215094790842
C         0.79998510050273   -0.07060898771960    4.53328119363665
C         0.75369247420543   -1.06195108593131    3.57426691643760
H         0.23522798631357   -1.74412808416697   -2.24071242298553
H         0.24977257859279   -4.15097570947230   -1.82040297785800
H         0.41706729733672   -5.01276978547126    0.48865417034556
H         0.56018145226352   -3.45807831415952    2.36384164668845
H         0.37195513186080    2.53475661016642    2.44589971033725
H         0.67871880932623    2.05868079318694    4.85951803015420
H         0.94123295475056   -0.32240810768371    5.57310822277547
H         0.86250572476830   -2.09305568198919    3.86516706574514
C         0.34663676370036    0.91492037542025   -2.32083488707542
C         1.39237807097641    0.92833074502794   -3.23459256588597
C         1.15409301544592    1.02773012924510   -4.59705961921342
C        -0.14292528404341    1.11974617178436   -5.07666097627111
C        -1.20380091633511    1.10984817455866   -4.19397497100569
C        -0.96823126036609    1.00781392231760   -2.82265350159969
C        -2.01318066622635    0.97864995629961   -1.81080184384604
N        -1.56019897568004    0.84677112704802   -0.54069508266335
C        -2.44190130648828    0.80603868946080    0.45793098127111
C        -3.80580035967625    0.89417727471320    0.26474030157200
C        -4.28646947203454    1.03144764684091   -1.03098108159439
C        -3.38065303936724    1.07305398977083   -2.07071015322629
H         2.41694799135283    0.85024755606984   -2.89537017180590
H         1.98464676707941    1.03051963826450   -5.28745687107085
H        -0.32281015358540    1.19567307756553   -6.13793759883919
H        -2.21077502545055    1.17887496465618   -4.57529837192883
H        -2.04409096042385    0.69317514678190    1.45696984500068
H        -4.47520635787474    0.85421254894055    1.10820497192248
H        -5.34600895699981    1.10228241450901   -1.22071738389899
H        -3.72514336642314    1.17850396461959   -3.08589744920179
