92
 energy: -142.874213967421 gnorm: 0.000252580526 xtb: 6.4.1 (afa7bdf)
Ir        1.30948969060480    2.36743595501673    0.08467518787097
C         6.51839738830654    5.73559619202896    2.17011321091914
O         5.22781496871866    5.38853242381548    1.70083761413515
C         4.94058845031997    4.08989740434109    1.49398145934677
C         5.80735070518390    3.02479661542836    1.72095752251431
C         5.36342532452870    1.73911708020491    1.45447977731104
C         4.08347541521962    1.53709618377521    0.97645766102888
N         3.23568213502531    2.54368963156999    0.75765584262759
C         3.64914841949820    3.80087143722513    1.00614549398772
C         2.68366737837624    4.83961098253454    0.72663498872216
C         2.68294218293142    6.22212538829356    0.79461036569658
N         1.45188474378887    6.57972660291785    0.38270120481384
C         0.94549854295505    7.90522162938357    0.20386298550809
C         1.51075268511226    8.53746639208440   -1.08466794351833
C         1.01742597903432    7.85046055716358   -2.36306595116068
C         0.82359655464818    9.00546647364756   -3.34689542513608
C         0.34293854324479   10.14286917385567   -2.44905689070985
N         1.05515345000960    9.90546069830654   -1.20927603177834
C         1.41696973335636   10.84472480060912   -0.29871375808130
O         2.08217269093193   10.56167416519272    0.67755267302417
O         0.93129080991539   12.03960898459926   -0.62746560650285
C         1.16443145395621   13.19703963726073    0.22160266831147
C         0.43878159468538   14.33125412998548   -0.50080582680057
C         2.66046927723500   13.48792390496841    0.31845973129517
C         0.55692944698082   12.96464573114339    1.60385351966600
N         0.73332830673905    5.51551110533975    0.07462350214224
N         1.45410144238539    4.47374502849594    0.27745982497088
H         7.29367585402523    5.42491847025959    1.46544858896157
H         6.51636734515644    6.82080991205284    2.24910039891230
H         6.71449245762783    5.30178675934913    3.15376426232257
H         6.80600231555498    3.18577100510971    2.09155780747069
H         6.01499049761686    0.89608982859279    1.61544013419322
H         3.72236391617376    0.54487939103656    0.75164914632831
H         3.42454219760374    6.92629486806536    1.10093854999895
H        -0.14273259353593    7.84553576218320    0.14610567603116
H         1.24537040765493    8.53323314050527    1.04711858099870
H         2.60764732870634    8.52523018421620   -1.01296432359115
H         1.72224788376602    7.10596934536068   -2.72850074195570
H         0.06478678631068    7.35411825888162   -2.17225295709831
H         1.77613168076510    9.27108655839594   -3.80530853522054
H         0.11147539854358    8.76830231366596   -4.13297468298321
H        -0.73865863982838   10.08661600350276   -2.27968317043937
H         0.58249550201955   11.13235586498957   -2.83718248494175
H         0.54440393616330   15.25439353879231    0.06010932992612
H         0.85676709739052   14.47108588810184   -1.49407308481942
H        -0.61733820539753   14.09537043129805   -0.60030079868772
H         2.81774211799532   14.39798690738650    0.88963365498824
H         3.08256681310017   13.61916565949997   -0.67560793888669
H         3.17258823498125   12.66786837905341    0.81431720757930
H         0.64032297731506   13.87174974536972    2.19482612882816
H         1.07971417014076   12.16162303597098    2.11610219903198
H        -0.49453962785408   12.70071150664868    1.51102434976558
C         1.28074090236104    0.34148683526423    0.09432161001232
C         1.50045598416051   -0.52478549381709   -0.97145300093775
C         1.45643844548098   -1.90055513572128   -0.81092799315955
C         1.18621268011114   -2.44810627881211    0.43282265897825
C         0.96234898172415   -1.61740001796588    1.51069591197798
C         1.00727110865012   -0.22920254743926    1.35851971317839
C         0.77384197054769    0.68163564563731    2.47664975767376
N         0.76524516183367    1.99079989447748    2.16271852715487
C         0.54798419359413    2.89480247839952    3.10766596766849
C         0.33209976801359    2.56794368380005    4.43208590735981
C         0.34727355524038    1.22359192436203    4.78090456147004
C         0.56685809460484    0.27842285598088    3.79953360002984
H         1.71287648755662   -0.12128210521398   -1.95072069388968
H         1.63065535059551   -2.54637198876407   -1.65843323874268
H         1.14799145316931   -3.51907832513872    0.56024539377338
H         0.74558112199408   -2.05717904732325    2.47196172248442
H         0.53635619246043    3.92885850869646    2.78864124410331
H         0.15780858284464    3.33803706036336    5.16548340630955
H         0.18719176311390    0.92171335651593    5.80463229017077
H         0.58137935508004   -0.76695471695087    4.05792391136670
C         1.75070010397516    2.56073145795258   -1.88135668577766
C         2.99864740384490    2.66395576460624   -2.48349952276195
C         3.12334946315065    2.86172193054941   -3.85008150889319
C         1.99545923013500    2.96540153329232   -4.64934717576048
C         0.74122902809393    2.86392376343023   -4.08268285561758
C         0.61191745556391    2.66119410904884   -2.70834198359377
C        -0.66044198699948    2.52904599234649   -2.01526196172851
N        -0.55269745273450    2.33962060944476   -0.67791742006310
C        -1.66368695412044    2.20355753167646    0.04531721380818
C        -2.93069805675570    2.24356180520252   -0.50120012504518
C        -3.05833662357102    2.43306849214931   -1.87095695420042
C        -1.91335893727234    2.57730881601509   -2.62706309601687
H         3.89884359622709    2.58065116106188   -1.88911944835292
H         4.10531897537737    2.93387047134309   -4.29438012194222
H         2.09816682669056    3.12009132558101   -5.71248560525588
H        -0.13183886426806    2.94130764586040   -4.71217901201337
H        -1.53915580401035    2.05003037811851    1.10829180315386
H        -3.79598089289100    2.12500479592780    0.13000297949868
H        -4.03207020297167    2.46463234826348   -2.33428051313968
H        -1.98243762635253    2.72378241439376   -3.69213336016891
