82
 energy: -134.986241573983 gnorm: 0.000300157685 xtb: 6.4.1 (afa7bdf)
Ir        1.13830431391719    1.91548290298760   -0.17190534634014
C         6.07712383926230   14.36579752574445   -0.75241154135627
O         4.90316702692289   14.29391800157368    0.02392469558542
C         4.13683649294228   13.18304325999307   -0.04528600951085
C         4.41038539385434   12.06571546710745   -0.83062822023627
C         3.55248891910638   10.98207615070822   -0.81391149252879
C         2.40071030235829   10.98081948960939   -0.03344244652567
C         1.48860287366903    9.83210747985670   -0.03247185813410
C         0.10525833365930   10.01661263040138   -0.01585667832360
C        -0.75398699062516    8.93343655734686   -0.02282280924125
C        -0.25729263542840    7.64344410419448   -0.04025117123570
C         1.12095814924627    7.45046386952945   -0.04996516049863
N         1.60658067180823    6.12971106450510   -0.04958433077945
C         2.88164858677911    5.68646286698603    0.01274512759985
C         2.77666385089518    4.30684126379493   -0.00438601215586
C         3.71992570739077    3.21388590187195    0.04642178585013
C         5.09400425163845    3.40656363836841    0.16747292697629
C         5.93569099790526    2.31351793898446    0.22026844172378
C         5.35858096768255    1.04929558684250    0.14444292357963
Br        6.42592864101288   -0.51222050915568    0.21564783678347
C         3.98410423706719    0.92497035311796    0.01650224688855
N         3.17051615872966    1.97813148462924   -0.02764481170330
N         1.45033116034140    4.01880685788623   -0.07635841780881
N         0.76903667700903    5.10144921957615   -0.10020117283576
C         1.98992926011159    8.53255496545204   -0.04898694440893
C         2.12990781059487   12.10801773118776    0.74569327933181
C         2.98367675793865   13.18543666787429    0.74668455429241
H         6.51124262049733   15.34052520017593   -0.53796578580607
H         6.79016979010035   13.58353527912340   -0.47395396444029
H         5.85557631078819   14.29638827789228   -1.82175744335383
H         5.28398224170316   12.03208982811366   -1.46206754518975
H         3.76969063711986   10.13592807369664   -1.45016463180787
H        -0.29366076347531   11.01875619684353   -0.01891130943521
H        -1.82100463597755    9.09230493270302   -0.01806428949049
H        -0.91214046478169    6.78767173287486   -0.04718952843712
H         3.73299665828178    6.32841822365042    0.06501909283842
H         5.49193117942633    4.40694914491638    0.22016499859885
H         7.00329167962424    2.42983636340939    0.31491234030617
H         3.52670192347189   -0.05159981409402   -0.05930972624263
H         3.05875940081496    8.38939135387352   -0.04573737906209
H         1.25367287789589   12.12451849373450    1.37613801601254
H         2.78444713543387   14.05423240783988    1.35319238515322
C         1.01327218721914   -0.10699979894907   -0.11147812790641
C         0.89475006236809   -0.98937434043670   -1.17900498290290
C         0.84740452659194   -2.36104948072583   -0.98472206665036
C         0.91836741039660   -2.88556111818296    0.29550167399817
C         1.03239946827226   -2.03665578840593    1.37653599439206
C         1.08013609467533   -0.65252063691919    1.19075221446185
C         1.18901687730333    0.27699940614635    2.31275669156527
N         1.13120401693035    1.58274286570725    1.98934967863443
C         1.19571134670488    2.50274601875313    2.94224753514553
C         1.33497185603770    2.19575457904893    4.28142779566917
C         1.41437075868055    0.85510280637939    4.63642130549929
C         1.33843297266889   -0.10625679660288    3.64922271858493
H         0.83935699474608   -0.60467671730366   -2.18674563630715
H         0.75369798195599   -3.02046538891392   -1.83428158260372
H         0.88204753615857   -3.95285717358352    0.44984471422093
H         1.07830684664046   -2.45848135542319    2.36849306768551
H         1.12233309526597    3.53330531839891    2.61931752178042
H         1.38047690332432    2.97790751364057    5.02126237876809
H         1.53084320691575    0.56866455163675    5.67029738162914
H         1.39848516617343   -1.14871979190594    3.91240159059421
C         1.06294748989474    2.03960313917227   -2.19329848789451
C         2.11584833789598    2.04982547928441   -3.09874153600972
C         1.89019618031289    2.18030082929654   -4.46084895430068
C         0.59905790285791    2.30726237497077   -4.94822445075451
C        -0.46872564732692    2.30156116750677   -4.07380101813753
C        -0.24596300761164    2.16830426031054   -2.70299451507173
C        -1.29894793247142    2.14206044654450   -1.69942237310245
N        -0.85717271689404    1.98929891614134   -0.42760208698965
C        -1.74625184019257    1.95448965039893    0.56478797333411
C        -3.10724568266576    2.06550320099214    0.36300798738040
C        -3.57678738384250    2.21921420751098   -0.93494500629708
C        -2.66312619093724    2.25814773933842   -1.96792356616723
H         3.13613214526836    1.94485079760167   -2.75364285337028
H         2.72603217054434    2.17989018892656   -5.14480619389279
H         0.42904469972571    2.40703722507797   -6.00912082805008
H        -1.47106957441667    2.39842847983019   -4.46118773154226
H        -1.35722462076631    1.82735261118575    1.56561606874653
H        -3.78286543654461    2.02870800697995    1.20164948336374
H        -4.63400283526142    2.30507562426311   -1.13145701350270
H        -2.99904171332911    2.37677081658692   -2.98454538862803
