81
 energy: -124.119878779555 gnorm: 0.000324351412 xtb: 6.4.1 (afa7bdf)
Ir        0.92168527989132    0.89478255533151   -0.32993905998328
C         3.56216166260443   -1.36838694970982   -0.44761010978138
C         3.96889407437671    0.03406403617709   -0.15755982316300
C         5.30626026071099    0.29801089833656    0.13553242041917
C         5.73452704412172    1.59330703674603    0.35307285515541
C         4.80787943600398    2.61257473393768    0.23269576654636
C         3.48774937586657    2.28785955814684   -0.05170314662523
C         2.49395565098221    3.32621715447297   -0.22278927787411
C         2.54232793071416    4.70875583090053   -0.27633047268277
N         1.26586636303774    5.08215268868793   -0.48073825035325
C         0.75651255988473    6.42251559042206   -0.66100070790028
C         1.05996021246914    6.89173228178560   -2.08725236169526
C         0.76588554690450    8.38126088219424   -2.19746602638195
C         1.74612913692217    9.15204355276691   -1.32137676395662
C         1.78777399457979    8.61869137145669    0.08273252282624
C         2.30321123844784    9.41404322221903    1.10179444913909
C         2.36068863770544    8.96250022161926    2.40541956897370
C         1.88462105858978    7.69927504346662    2.71704134937730
C         1.36896215660089    6.90039456836601    1.71589151246604
C         1.32973604829830    7.34228734095885    0.39627655510745
N         0.47632393528459    4.02906894293575   -0.55288410018783
N         1.19760594335593    2.97758631168512   -0.40448982431634
N         3.05661396849457    1.01452708028739   -0.20765669323474
H         4.42618868522557   -1.95675050772644   -0.74390114865228
H         2.81385379700772   -1.38988498996151   -1.23477673760098
H         3.12296174302144   -1.82913683777365    0.43550433702955
H         6.00284500461394   -0.52321414276700    0.18534311583167
H         6.76477707252837    1.80644327780398    0.58959003859405
H         5.09046509498715    3.64495601813131    0.35642207197496
H         3.34034100954689    5.41314948344322   -0.17961364761301
H        -0.33037904147000    6.34322000935655   -0.52981804270202
H         0.45745045656210    6.31775601716737   -2.79333243647842
H         2.11420373126217    6.71292063809134   -2.31433251834361
H        -0.25736008070079    8.57757285467303   -1.87230587931516
H         0.85905652978404    8.70396880610972   -3.23438884428907
H         2.75049610787551    9.08307797867991   -1.75243835426729
H         1.48053134573413   10.20995795327173   -1.29747229014517
H         2.66038827954565   10.40386351593284    0.85950914973766
H         2.76440291238621    9.59597090645188    3.17967923659376
H         1.90898679998342    7.34259046010554    3.73515083639307
H         0.98144702595708    5.92043956617089    1.96134315134736
C         0.57003309443476   -1.08751426838674   -0.06358873104873
C         0.22162368206250   -2.03360668235008   -1.02464295374977
C        -0.09779726631821   -3.33714973204171   -0.68334268442196
C        -0.08557315247558   -3.73267617077237    0.64475276644796
C         0.24621764913443   -2.82084928330844    1.62393565750334
C         0.57283025408479   -1.50421479445558    1.28714355268160
C         0.91193701890047   -0.51031283440950    2.30130646587371
N         1.01149621499428    0.75730835885934    1.85783506341900
C         1.29275920077090    1.73032943933981    2.71348421748390
C         1.50672010754486    1.51882726641487    4.06103607923146
C         1.43080512167673    0.21534269242166    4.53493562418002
C         1.13155829104638   -0.80125901280921    3.65147688714002
H         0.20198466517624   -1.75222814275121   -2.06805481621470
H        -0.36283002166137   -4.04478929884573   -1.45443875312770
H        -0.34060904595341   -4.74593418571881    0.91429914090832
H         0.23297637114721   -3.13451474986485    2.65652164769704
H         1.34214379102242    2.73157951012118    2.30469615136418
H         1.72788820484541    2.34434649171795    4.71750238336212
H         1.60235534562400    0.00111110348187    5.57861417748903
H         1.07628172483292   -1.81782089172534    4.00296552257494
C         0.79042660894740    0.85003633172540   -2.34826789662530
C         1.81515269417963    0.75645978462687   -3.28144787078829
C         1.55109527857068    0.78466312123878   -4.64250842723035
C         0.24945750723824    0.91069995172657   -5.10220952130017
C        -0.79053920918066    1.01180651402155   -4.20047637156904
C        -0.52889908191586    0.98398658627113   -2.83048985043249
C        -1.54646682930318    1.08696566398005   -1.79696633800526
N        -1.06636363200275    1.02733304726340   -0.53273083118329
C        -1.91397673367380    1.12249540225220    0.48914421775958
C        -3.27585497770178    1.27710640829371    0.32563220723371
C        -3.78775923124796    1.33368664117843   -0.96419131480174
C        -2.91404558908808    1.23870061431119   -2.02766296721766
H         2.84212954195948    0.65660840547843   -2.95636676755184
H         2.36519001953016    0.70674472836465   -5.34808735179606
H         0.04990037864178    0.92950767602014   -6.16258507460363
H        -1.80127821836280    1.11053542500589   -4.56540227115847
H        -1.49047038544002    1.06653769605928    1.48228977481714
H        -3.91970516138488    1.34761674099810    1.18683115313416
H        -4.84732856276960    1.44898613962886   -1.13090012964618
H        -3.28344365758423    1.28073034629241   -3.03877318779858
