101
 energy: -169.478900534873 gnorm: 0.000824640853 xtb: 6.4.1 (afa7bdf)
Ir       -0.05440506267045    1.90160949353261   -0.01822039791143
C         6.23843795423659    3.71269854274738   -0.25713690089223
O         4.82243236956862    3.73595972197390   -0.24261958932275
C         4.15701689422757    2.56579033601696   -0.20168529641638
C         4.74286879343702    1.30408954433745   -0.16863851260882
C         3.91762732073868    0.19107158317705   -0.12727059118764
C         2.54594986259379    0.34911782728766   -0.11008200939581
N         1.96440281946501    1.55005498467032   -0.13264901979514
C         2.74904281151339    2.64205031495091   -0.18598014193902
C         2.04575531015657    3.90201501319386   -0.25256783677756
C         2.41252440452075    5.20323480282003   -0.54328278216366
N         1.25801263000850    5.89349068514393   -0.51609641420865
C         1.04983831331598    7.26987694176813   -0.88972780693874
C         0.07488221773963    7.18620702510996   -2.10554724606275
O         0.49158094874997    7.07560173336891   -3.23032632155487
N        -1.21386306408206    7.17986582499803   -1.73760577156180
C        -2.28134171654547    6.85467128477903   -2.62556094052445
C        -3.46232809482731    7.85670454013071   -2.66074076878997
O        -3.60328349199583    9.01645967830507   -2.89153489756640
N        -4.34922385313796    6.86726962627398   -2.29487542984125
C        -3.33262584109068    5.87707292191719   -2.04848809063446
S        -3.31974555190734    5.63172813485331   -0.23392560864457
C        -4.80964110388029    6.72342028116847    0.04529162633231
C        -4.33818402365608    8.06912419089052    0.58184141781817
C        -5.74277040596939    6.03583830213382    1.02899180502406
C        -5.44167367417857    6.90447161552783   -1.36771442245641
C        -6.41781840608721    5.78090365937154   -1.70325394255324
O        -6.09814868554721    4.69760071722190   -2.10827671050337
O        -7.67217799517837    6.15452504322153   -1.48937436100408
C         0.53221498693035    8.14603889521100    0.22229307228939
C        -0.29473128459394    7.65555412930663    1.22767559451258
C        -0.78019581075788    8.51030674948481    2.20339379355363
C        -0.45863075552389    9.85613068393706    2.17775635574835
C         0.35989149392440   10.34838065090219    1.17474262735293
C         0.85606441878189    9.49790919209367    0.20357218326631
N         0.24269536282690    5.09306269937594   -0.23000224332297
N         0.69868352208717    3.90591966625382   -0.06906176939093
H         6.54628505556666    4.75587725149039   -0.28724604521179
H         6.63807706793041    3.24404007748540    0.64571468413178
H         6.61838777258486    3.19754126832814   -1.14273746065533
H         5.81321978097953    1.18302904705013   -0.18177197059216
H         4.34320845414218   -0.79876765025089   -0.11202008819266
H         1.88869705175853   -0.50679568473035   -0.08915419985882
H         3.35990390253568    5.64239056004961   -0.76404666496321
H         2.00126709934553    7.65753896008803   -1.26682663365813
H        -1.44821238494306    7.19837651885266   -0.75044316574012
H        -1.86787090872189    6.59155787806240   -3.60126451744272
H        -3.46917912435343    4.91451803352590   -2.53632723118507
H        -3.73379715219532    8.60055877580106   -0.15069660603577
H        -3.74055794599635    7.92399197093488    1.47854082307012
H        -5.19519858619787    8.69032340593545    0.83421879194156
H        -6.67390966934406    6.59318702630599    1.11073152383554
H        -5.96224593392832    5.01972376719580    0.70972458033351
H        -5.27615263992360    5.99057718073053    2.00988757499383
H        -5.96083167275277    7.86336326759435   -1.43249303178557
H        -8.30328703359503    5.45316378107293   -1.72237794624045
H        -0.55712580974612    6.60676817546162    1.25629193881368
H        -1.41256050222447    8.11930879752569    2.98653153955184
H        -0.84302730212001   10.51945054020734    2.93680930259598
H         0.61503822652429   11.39616697290129    1.14885446548982
H         1.49314436154810    9.88440541393516   -0.57776369373866
C        -0.57614737143995   -0.05411418935904    0.07276675120633
C        -1.00774570354181   -0.87187295249545   -0.96519441055154
C        -1.34270388118210   -2.19953190733674   -0.75095662605860
C        -1.25755737481629   -2.74272237750487    0.52081016724662
C        -0.83135031449813   -1.95804545205642    1.57208225565429
C        -0.48573671994109   -0.62045256939797    1.36425664963566
C        -0.02256698336691    0.24138827109277    2.44925900680459
N         0.16878084173649    1.53210760120412    2.11816471547069
C         0.57941020558497    2.39546165905037    3.03634734634215
C         0.83975127185216    2.03906241074051    4.34540018718347
C         0.66344642120661    0.70927919958641    4.70563428870711
C         0.22846173744293   -0.19150168089801    3.75460716953155
H        -1.08321232855535   -0.47045838179288   -1.96504750979142
H        -1.67376385478539   -2.81005725776265   -1.57753802994213
H        -1.52389885500864   -3.77451682393815    0.69135251635273
H        -0.77700439289078   -2.39128812216762    2.55894925749650
H         0.69810322470424    3.42037802611512    2.70949571003253
H         1.17126548721221    2.77562279670701    5.05879618406841
H         0.86280112011836    0.38420619576971    5.71522156519708
H         0.09052992700659   -1.22604654930452    4.02041100928417
C        -0.37994958427238    2.11957284877501   -2.00619646335508
C         0.54987043920559    2.12430559521800   -3.03780447424949
C         0.16987584087600    2.37649580707742   -4.34732444453576
C        -1.15784784924824    2.62594568113098   -4.65648538082150
C        -2.10805705372542    2.61984192942813   -3.65547126065562
C        -1.72795316866546    2.37180664883472   -2.33625273491720
C        -2.64668273974337    2.36503483736810   -1.20810488656343
N        -2.04334572138116    2.25961321110267    0.00020144361458
C        -2.79685949919626    2.28669296623453    1.09863307327193
C        -4.17387529545444    2.37692864128120    1.06798174876849
C        -4.80859085920802    2.43130589876403   -0.16532317659572
C        -4.03599087418146    2.43702337451107   -1.30759181814990
H         1.59393694186008    1.92633493242857   -2.83284710554891
H         0.91347510543773    2.37924878489396   -5.13038583150442
H        -1.44759293711811    2.82241351503476   -5.67719436384430
H        -3.14176703721304    2.81053678809764   -3.90336023553550
H        -2.28150809993590    2.22405203489381    2.04703976523727
H        -4.73424182470385    2.38953528934941    1.98868945758660
H        -5.88400011766497    2.47154318159538   -0.23763436561388
H        -4.51059084250741    2.49392576471828   -2.27267677188820
