77
 energy: -115.564731105756 gnorm: 0.000379356775 xtb: 6.4.1 (afa7bdf)
Ir        1.15641350664178    0.98980015788408    0.14791806282732
C         3.75655589518599   -1.30294823367106   -0.00055477412658
C         4.19844792330605    0.09675979511859    0.24604273166630
C         5.55442188242516    0.34767765618278    0.45145174087031
C         6.00906409677894    1.63887686639102    0.63901039855290
C         5.08505974293745    2.66576718925154    0.58690599191204
C         3.74623487855810    2.35485785664235    0.38442384930445
C         2.75541570889597    3.40548545164279    0.28652266798670
C         2.81410433066194    4.78912237785509    0.29363539841584
N         1.53601249548855    5.18414372179206    0.14441367843116
C         1.00910033532267    6.52684494600782    0.07235371556211
C         1.33990818801664    7.31319435804157    1.34237372481078
C         0.72952716071881    8.70968866057081    1.25360677944229
C         1.24671673826404    9.44214549119339    0.01932026501877
C         0.93326662709721    8.64767512393822   -1.24488027315273
C         1.54319065995168    7.25062763208620   -1.16557411540930
N         0.73648165463508    4.13803384563399    0.05063298720726
N         1.45150186785237    3.07538194279770    0.13064438525117
N         3.29440602208212    1.08684902717646    0.24482137375436
H         3.25311922002183   -1.70477440529890    0.87648059460951
H         4.60987297477500   -1.93559107172339   -0.22722148200787
H         3.04804834844399   -1.33377653162976   -0.82398296788584
H         6.24553174815220   -0.47953595321885    0.45742013406553
H         7.05511789789412    1.84247490406118    0.80376477077599
H         5.38544101230928    3.69450691246002    0.69744583191094
H         3.63063437238338    5.47168350882769    0.38566656728328
H        -0.07591558286137    6.40557629204875   -0.01436855485152
H         2.42336432979241    7.40018913043302    1.45050200144583
H         0.95033303786275    6.78695398713833    2.21673157059096
H        -0.35770128639371    8.62737722148100    1.20074926187263
H         0.97918359664603    9.27191847013079    2.15390153651618
H         0.78697786073113   10.42840217091678   -0.04222236658841
H         2.32638702757425    9.58317284364640    0.10387521412992
H         1.32836694912320    9.16551728341340   -2.11911726674270
H        -0.14846293961112    8.56459151257356   -1.36541291030789
H         1.29577719750749    6.67813546262326   -2.06188117333876
H         2.63061546344844    7.33268857303824   -1.10245768443635
C         0.76497921984522   -0.99180212707905    0.36295050500248
C         0.42834626118144   -1.91138885164643   -0.62746599597785
C         0.06338479239227   -3.21198440327787   -0.32239126996540
C         0.01515885647818   -3.63072495334409    0.99774403370084
C         0.33634599053742   -2.74607872071667    2.00490055689245
C         0.71051038387946   -1.43303405929193    1.70510398667693
C         1.04874190617990   -0.46993214508843    2.74892100284625
N         1.22876980994133    0.79762994590582    2.33034992727831
C         1.52429364908694    1.74261031319931    3.21222224984810
C         1.66967831279806    1.50189625309560    4.56410869711076
C         1.50351540840721    0.19847273522028    5.01443582146429
C         1.19276316716841   -0.78944577533259    4.10287963020047
H         0.45330155855396   -1.61123677284228   -1.66545357358187
H        -0.19054260303146   -3.89880962548873   -1.11572523831089
H        -0.27738493112577   -4.64090447517688    1.23925452345830
H         0.27851912655590   -3.07847545031542    3.02998529781299
H         1.64356546218751    2.74546301508666    2.82235589585076
H         1.90579784449059    2.30572587812498    5.24192036240978
H         1.61543090663611   -0.03803830287218    6.06136295700455
H         1.06861737056991   -1.80587073241485    4.43668505613789
C         1.02291403915626    0.99107066328655   -1.87152595997167
C         2.04358213064973    0.89628975138595   -2.80925399367867
C         1.77733957520642    0.95298250475767   -4.16899034276816
C         0.47718623540716    1.10966760189306   -4.62336511461230
C        -0.55894068769957    1.21108712174225   -3.71734519433961
C        -0.29502660599854    1.15368561430570   -2.34864111123493
C        -1.31031634695392    1.24948944343288   -1.31232871739591
N        -0.83197546977556    1.15347970399460   -0.04981714691924
C        -1.67922422114225    1.23538754662172    0.97340864972622
C        -3.03876621145594    1.41225001863961    0.81317140060974
C        -3.54875318668119    1.50806592029785   -0.47507262036888
C        -2.67547846608841    1.42666049926929   -1.53991002671068
H         3.06962534875536    0.77246348563477   -2.48935656869497
H         2.58851558266455    0.87314695364633   -4.87769716143808
H         0.27577559240272    1.15131685396329   -5.68272523817058
H        -1.56866548805143    1.33266978223313   -4.07808470680410
H        -1.25836685424553    1.14977075652405    1.96546286524727
H        -3.68221597166406    1.46982228785017    1.67563515220087
H        -4.60638824100231    1.64277810576635   -0.63952290649525
H        -3.04331418883855    1.49891946155116   -2.54986934940686
