82
 energy: -133.649850416087 gnorm: 0.000364109866 xtb: 6.4.1 (afa7bdf)
Ir        0.54327372643282    0.90991879730492   -0.04375222902499
C        -0.70238397633003   13.49888229299376   -0.59334307549215
O        -1.55669544545907   12.38037469610653   -0.61998975608138
C        -1.01148240161433   11.14974787183294   -0.76152427090643
C         0.34035510246081   10.87585736739681   -0.87063092837807
C         0.78905286345013    9.56837654958214   -1.00557513419030
C        -0.10570025379560    8.51871165456016   -1.04295569656837
C         0.37259934680483    7.09535335928526   -1.13927670684817
C         0.42413473990178    6.48548288572963    0.27094354043412
N         0.91732561204495    5.13673415829673    0.24709321687594
C         2.19801389815884    4.72270811380897    0.27343249028718
C         2.12100016418538    3.34226951618312    0.19198169517868
C         3.08928458369284    2.27009721601388    0.20707093987935
C         4.45982821015439    2.49567656160005    0.30881960783538
C         5.32922862810320    1.42353855919495    0.33496966619669
C         4.78161588521482    0.14638593498287    0.25562186816747
Br        5.88714951837081   -1.38924265030588    0.29450496105951
C         3.40875338163716   -0.01029633831638    0.14699579894907
N         2.56849691450046    1.02288680553876    0.12443858993013
N         0.79981933278686    3.03298907198008    0.11390707558351
N         0.09837055651510    4.10579861509462    0.14814225508699
C        -1.47104191625910    8.78286330484506   -0.93467358085035
C        -1.93693433964054   10.07684067643896   -0.79722911833160
O        -3.24040612344061   10.43356252481910   -0.68539976144988
C        -4.22336229383898    9.43026030592944   -0.73613942523171
H        -0.13373824286112   13.59301218857230   -1.52383572917714
H        -1.35554650416789   14.36232148655013   -0.48205728157865
H        -0.01092691177200   13.45718606943402    0.25444463128186
H         1.06251196149664   11.67547516246651   -0.85294109025007
H         1.84947663935252    9.38359554968591   -1.09175327967753
H         1.36859092559419    7.06490993757553   -1.58504702508224
H        -0.30362997230906    6.50235124802038   -1.75767876507492
H        -0.58105179754646    6.46083967050033    0.69522908308847
H         1.07273270844539    7.08850177150139    0.91026317388341
H         3.02391673596159    5.39670459075402    0.35063959013047
H         4.83353946833179    3.50516482025207    0.36519486873029
H         6.39511974792778    1.56541583430469    0.41202228483735
H         2.97506276159021   -0.99736884134026    0.06850351437119
H        -2.16418575178832    7.95683178709512   -0.97100075639306
H        -4.11714807544968    8.71845528216328    0.08987562511142
H        -5.17544282209767    9.94902027803016   -0.64122194255144
H        -4.19984049008609    8.88994502932276   -1.68832416808901
C         0.47921367761193   -1.11557076247044   -0.02476870692688
C         0.43916690672619   -1.97937900955121   -1.11266028965564
C         0.43130765040070   -3.35550928826511   -0.94544683405835
C         0.46176096585843   -3.90205870414695    0.32709541398152
C         0.49909694601742   -3.07115852823686    1.42739407885453
C         0.50916742910061   -1.68279871973368    1.26924688299650
C         0.54473835221934   -0.77192140507568    2.41118399923489
N         0.48453125148505    0.53833544479279    2.10722935436011
C         0.48764893673185    1.44223361070087    3.07751252702699
C         0.56288322182339    1.11386233829853    4.41670404935556
C         0.64157174743532   -0.23164866957601    4.75288202947722
C         0.62977333734294   -1.17652439689282    3.74701362818328
H         0.41670374651540   -1.57673677148831   -2.11457807050809
H         0.40096177042472   -4.00088335777418   -1.81019535588850
H         0.45485698909221   -4.97275469796417    0.46040686083168
H         0.51616421327513   -3.51067024963678    2.41250536380768
H         0.41551975605401    2.47695019862584    2.76823708321769
H         0.55984906335857    1.88345609900672    5.17096705443071
H         0.70751709547159   -0.53448535742514    5.78650450098112
H         0.68860587158174   -2.22257390665744    3.99574518941460
C         0.50741084599685    1.07569981099293   -2.06337852716624
C         1.57814286994083    1.14235692585477   -2.94564822603412
C         1.37761268338697    1.29442034496716   -4.30941681025305
C         0.09361799349846    1.38769122346849   -4.82261727110204
C        -0.99162509989343    1.32389229463349   -3.97239369160979
C        -0.79394237738839    1.16697291244417   -2.60010941830688
C        -1.86788514178870    1.07345678524052   -1.62297479832904
N        -1.45042437755335    0.91745589371007   -0.34324652509347
C        -2.36172889516701    0.81589622704397    0.62424152523334
C        -3.72118901641688    0.85988428511880    0.38903835071376
C        -4.16542266550610    1.01723987033637   -0.91732026147462
C        -3.22912316798148    1.12586656718651   -1.92467817017081
H         2.59422798950516    1.06564617842754   -2.58129466978056
H         2.22756807703581    1.33752292810469   -4.97428047063927
H        -0.05700512104309    1.50527987430898   -5.88458160000707
H        -1.98815443891469    1.39394683381471   -4.38004738327822
H        -1.99291022458356    0.68777365822088    1.63248761141181
H        -4.41485826364222    0.76865647507211    1.20856569140339
H        -5.22038716872188    1.05143555307879   -1.13998776581488
H        -3.54518852394371    1.24761277566278   -2.94729610449934
