74
 energy: -131.868646697752 gnorm: 0.000274134345 xtb: 6.4.1 (afa7bdf)
Ir        0.74179204678981    1.14058523352447    0.25965995518200
F         2.38019239607940   11.40444912741676   -2.83820473689641
C         3.03403497654348   10.23952050909511   -2.71384944561634
F         4.26522962438486   10.53980915654559   -2.26573389798155
F         3.18288194095435    9.74200080759351   -3.94590082568976
C         2.32278308655555    9.29641287956394   -1.77943065221026
C         1.79829817236010    8.09616952745811   -2.23693404738325
C         1.15241350013402    7.25556010942984   -1.34917612971609
C         1.03145866693894    7.60595425532170   -0.00910090353160
C         0.33674435393133    6.67010696560290    0.94900162983046
N         0.89438326347467    5.34445838111551    0.86884890667259
C         2.19243624206635    4.99014417480077    0.93654558307880
C         2.18394263440331    3.61447220967612    0.78401697798402
C         3.20493646190424    2.59226553665753    0.74154387577023
C         4.55446128405204    2.86775109636476    0.94670169398578
C         5.47753324433006    1.84252627502155    0.88887404078524
C         5.00440485225144    0.56181934529383    0.61749829844699
Br        6.18767618118787   -0.91115978933913    0.51776477658925
C         3.64812685632870    0.35555072780694    0.41750945959485
N         2.75533050027647    1.34174841416148    0.48190756304117
N         0.88235725112817    3.24832407306650    0.63760390192198
N         0.12976940882308    4.28375411807755    0.68862254618427
C         1.55892625960815    8.81037489596219    0.43718180735810
C         2.20038407175431    9.66041302747548   -0.44495372416072
H         1.89254539078452    7.82419818963512   -3.27635563020376
H         0.73694606955929    6.32368550145513   -1.70452040721352
H         0.42586207303115    7.04126352535688    1.97493625803861
H        -0.72465509980526    6.57439126062457    0.70190782606953
H         2.97938824343384    5.70088826680579    1.07027256252445
H         4.87032311932982    3.87826498294750    1.14939760683198
H         6.52887453395824    2.02320594687100    1.04444932099937
H         3.27248106132575   -0.63245985667298    0.19108996739645
H         1.46467934742860    9.09227938769425    1.47485027897199
H         2.60888771835662   10.59861016074431   -0.10309732127340
C         0.79132782711786   -0.87319547489362    0.03557824903959
C         0.79765048195561   -1.59988986387550   -1.14854237409736
C         0.86077950711550   -2.98495496898046   -1.14743125937425
C         0.91661376338056   -3.67818021979208    0.05060112365247
C         0.91038903878714   -2.98494987922590    1.24307538611782
C         0.85035542629545   -1.58898612577556    1.25253363864877
C         0.84015131653208   -0.82054444419133    2.49518982894221
N         0.70338305028596    0.51080164479004    2.34876739926653
C         0.65954448434885    1.29212790705782    3.41937274991796
C         0.75894301773780    0.81179349429360    4.71019357595335
C         0.91806052862697   -0.55722496312242    4.88436173849979
C         0.95696715175958   -1.37521496817833    3.77341846526944
H         0.75552741159978   -1.08091865145367   -2.09478538038498
H         0.86508044483922   -3.52263061508274   -2.08336991462282
H         0.96324551560928   -4.75610269457007    0.05452280505759
H         0.94769575049651   -3.53798035363373    2.16860762191379
H         0.52780131473548    2.35045323379255    3.23435078843228
H         0.71395107078124    1.48457542566479    5.55072246333689
H         1.00750851731953   -0.97598585327951    5.87480967938735
H         1.08021762599120   -2.43793100931564    3.89580451505274
C         0.69435634395705    1.56924991474336   -1.72119992790126
C         1.75811872916607    1.83304499519478   -2.57428785118290
C         1.54687034505873    2.17653353004529   -3.90145679765731
C         0.25893357856715    2.26714017151983   -4.40510535523851
C        -0.81957486341050    2.01040225527143   -3.58279287394969
C        -0.61099209419734    1.66286491734029   -2.24780389064825
C        -1.67667257798148    1.36534920542606   -1.30249697450110
N        -1.24907211197034    1.06171532144344   -0.05324295589470
C        -2.15087698527643    0.76348550378829    0.88219216121318
C        -3.51023367584543    0.74813657929969    0.64289958950003
C        -3.96477161061251    1.05815121172348   -0.63219534269255
C        -3.03837332531383    1.36920505117732   -1.60612568441946
H         2.77719347760099    1.76351461470854   -2.21663958489006
H         2.39168470686573    2.37167210465663   -4.54528319961395
H         0.09980148127323    2.53390830829801   -5.43844810209825
H        -1.81903760863133    2.08110640507658   -3.98295257183079
H        -1.77392707770135    0.52019495612679    1.86590089568766
H        -4.19564557710437    0.49527285392845    1.43493008511586
H        -5.01969979427375    1.05274133461386   -0.85727074304081
H        -3.36255233915829    1.61098072227391   -2.60455609135505
