74
 energy: -119.200385820400 gnorm: 0.000490356698 xtb: 6.4.1 (afa7bdf)
Ir        0.46867262041134    0.79260886276177   -0.11053331900691
C        -1.25432470509458   10.83209715557694   -1.59140833351252
C        -1.36223833082484   10.26347921764020   -0.17365804206225
C        -0.78241003098347    8.88380958668115   -0.12390090466984
C         0.55495771266168    8.68442708913619    0.20233644178016
C         1.10694790862716    7.41818740569218    0.21659842413530
C         0.31302596175858    6.32431136015054   -0.10835473037778
N         0.82869554252982    5.01789376494031   -0.08685231472849
C         2.11655695691860    4.60994262792636   -0.06069704855787
C         2.04673003098488    3.22802407310680   -0.03268533304225
C         3.01877358725366    2.16009134980382    0.00938576456693
C         4.39061191627203    2.38900125855471    0.08196435108076
C         5.26125134520964    1.31845944161587    0.12849169485934
C         4.71437379111833    0.03906854560059    0.09572550321421
Br        5.82221291584386   -1.49421357546126    0.16041207465643
C         3.34011376254898   -0.12177358278740    0.01461362389400
N         2.49868319147765    0.90960728093776   -0.02312529545841
N         0.72656246173729    2.90496949230513   -0.04464886397053
N         0.01589752823304    3.96891435727947   -0.07555175536514
C        -1.02617805853699    6.50438508257767   -0.44165961790236
C        -1.56087538469782    7.77585814204942   -0.44734846502646
H        -1.79241419128281   10.20287558609520   -2.29627774007109
H        -1.67736861930509   11.83210025363815   -1.62592221502531
H        -0.21365291781072   10.88493756137333   -1.90219878867471
H        -0.82802962132181   10.91716997710433    0.51713513219014
H        -2.41221011943176   10.23406117895718    0.12139833652680
H         1.17237481789767    9.53191478079909    0.45856694320055
H         2.14127374660474    7.29173540512518    0.49604681958036
H         2.94942534575877    5.27778415732696   -0.08391685268003
H         4.76446227932879    3.39981849639227    0.10192452747306
H         6.32795587621538    1.46336635007331    0.18643138576909
H         2.90608809649352   -1.11090659121640   -0.02907253062645
H        -1.62614245841660    5.64341097481584   -0.68989071104507
H        -2.60010186250488    7.91332583759779   -0.70443646796625
C         0.39965290767137   -1.23194526535079   -0.03981555303523
C         0.28536101566296   -2.12135294892863   -1.10178099320490
C         0.27501386924428   -3.49295006005979   -0.90122530635590
C         0.37735463314714   -4.00970441296677    0.37999749930909
C         0.48983030851624   -3.15358253723340    1.45557910613289
C         0.50401361713191   -1.76967868238543    1.26317140311156
C         0.61552915039598   -0.83245438061374    2.37842622298747
N         0.51997727519682    0.47008550279993    2.05059265820716
C         0.58329432812166    1.39584663683109    2.99789827268962
C         0.75742898919106    1.09834488170777    4.33525032201687
C         0.87878760780928   -0.23816157523944    4.69396981664278
C         0.80586675269943   -1.20565080063015    3.71248177013750
H         0.20521226920793   -1.74242573116263   -2.11003563041547
H         0.18558318993523   -4.15816898714437   -1.74668062292014
H         0.36712683002532   -5.07679114920189    0.53953368292330
H         0.56021526619153   -3.56984627804832    2.44846189043195
H         0.47841157916832    2.42282843869957    2.67199380278089
H         0.79792369012971    1.88468471843557    5.07092291059072
H         1.02512043337207   -0.51681505909248    5.72616558433678
H         0.90023501609036   -2.24506375039614    3.97758092098801
C         0.34226740365835    0.91049954953886   -2.12945467424315
C         1.37298550066782    0.94517338372580   -3.05956072098324
C         1.11250890795291    1.07421452633024   -4.41554310409130
C        -0.19234483705039    1.17363019042288   -4.87168229902871
C        -1.23878990303798    1.14181696111189   -3.97230582539345
C        -0.98092404356164    1.01160780529245   -2.60735301357530
C        -2.00901030401966    0.96213535562276   -1.57887446703450
N        -1.53461773255763    0.81574458421224   -0.31811736316056
C        -2.39928490893205    0.75967242460037    0.69454567101358
C        -3.76660468271758    0.84456822812731    0.52506352637071
C        -4.26928392528808    0.99364111658321   -0.76090677264639
C        -3.38109201070351    1.05261887435585   -1.81500242846578
H         2.40315195877232    0.86093106559646   -2.73915171457867
H         1.93192929249304    1.09433761754493   -5.11875232636800
H        -0.38962717089322    1.27230149385217   -5.92793253497669
H        -2.25185944299170    1.21613964887114   -4.33614971223051
H        -1.98444439401934    0.63715095882923    1.68547800520997
H        -4.42171570832517    0.79211122667349    1.37897022129445
H        -5.33226239026694    1.06059504006386   -0.93212207773711
H        -3.74285043375410    1.16725248443511   -2.82318183989546
