74
 energy: -115.622389641058 gnorm: 0.000333158889 xtb: 6.4.1 (afa7bdf)
Ir        0.88818533596052    0.52368695043142    0.22723147376452
C         3.60163442576976   -1.59640380789690   -0.25666465673944
C         3.95839443659904   -0.25538700390792    0.28268853672077
C         5.28304977712843   -0.00494834023914    0.63953462927058
C         5.66396186044766    1.24369970501550    1.09169242751616
C         4.70446507311826    2.23862147570958    1.13773514543189
C         3.39980072710128    1.92803998484677    0.77680202253467
C         2.37416300619192    2.94971318096440    0.76190895103853
C         2.37261052105613    4.31900071403828    0.96603663546799
N         1.09274298512064    4.68764061440939    0.76829667548101
C         0.54442065212043    6.01932593514261    0.81643070121314
C         1.32839826100254    6.94473709009860   -0.08200085280134
C         1.92221346482298    8.09189422667175    0.42368534908889
C         2.64563265954400    8.92654256673669   -0.41144662723285
C         2.78790852653575    8.61296673556106   -1.75204370638414
C         2.20119724164779    7.46528864270877   -2.25986421147842
C         1.47195217128508    6.63405842639764   -1.42929732413242
N         0.34782914000456    3.64239211554723    0.46244669376729
N         1.10020563372160    2.60310218738677    0.45525681794370
N         3.01413269671420    0.68915919537388    0.39212086049058
H         2.85324752871272   -1.50327087213250   -1.03830841828128
H         4.48597096455885   -2.09063351167672   -0.64941575434076
H         3.18125617596282   -2.22347980835498    0.52760470969842
H         6.00728182780556   -0.79876214222235    0.55298576895355
H         6.68373066005465    1.44422008093069    1.37916449878242
H         4.95122585775728    3.24147858967425    1.44463375753250
H         3.14103814515490    5.01988236231452    1.21250794542566
H        -0.49562791327644    5.93622346385379    0.48899748555470
H         0.56330266596499    6.38238834213182    1.84887431873758
H         1.81216918919842    8.34004329876528    1.46959212594720
H         3.09844064223821    9.82099972242059   -0.01238322261083
H         3.35316670529882    9.26303445465015   -2.40150372442292
H         2.30787517374591    7.21854752133132   -3.30498866757947
H         1.00821295842517    5.74193808418847   -1.82724734873385
C         0.60919742897267   -1.48817120262981    0.22274356847393
C         0.29799841859291   -2.30777562371923   -0.85970870041794
C         0.03246605525846   -3.65754561658604   -0.70054891197438
C         0.06225179248596   -4.22944780328706    0.56142215277377
C         0.35698514191365   -3.44656523771309    1.65707283485239
C         0.62952620324608   -2.08413890308085    1.50416964815961
C         0.92544893550497   -1.22513629595403    2.64687794810197
N         0.97278610614263    0.09424587710794    2.38198116614979
C         1.20922976161067    0.95103751091043    3.36598223670442
C         1.43004097234504    0.56561115962213    4.67324388456277
C         1.40809647293705   -0.79265172092146    4.96336284196106
C         1.15265305680042   -1.68939580106393    3.94652879662863
H         0.26556898144405   -1.88816788599242   -1.85525536309145
H        -0.20388449797282   -4.26378019885032   -1.56203022134310
H        -0.15051813488760   -5.27954270395371    0.68954304993709
H         0.35663236420484   -3.89808648311162    2.63730901330033
H         1.21427463928492    2.00057898094720    3.10081299746445
H         1.61469238333862    1.30179994227559    5.43829323940135
H         1.58587538313872   -1.14075826895930    5.96922210589617
H         1.13715083512549   -2.74585824690394    4.15547681517601
C         0.76193663069406    0.74771656909692   -1.78024932874502
C         1.79043575913977    0.81948464001829   -2.71112201452351
C         1.52691841734105    1.01739183588970   -4.05826308249252
C         0.22199633696443    1.15346069097347   -4.50538971592578
C        -0.82202285034290    1.09486487793962   -3.60447742357204
C        -0.56113102640901    0.89436826537891   -2.24881757705179
C        -1.58400280209726    0.81761275719243   -1.21828430366368
N        -1.10385332060218    0.60881684274430    0.02993781991305
C        -1.95676532586783    0.52820382477686    1.04887155091369
C        -3.32376724344726    0.64422444263618    0.89710384316481
C        -3.83535021574688    0.85372786729730   -0.37706111789428
C        -2.95644113564198    0.94161352222392   -1.43678332087578
H         2.82037551877793    0.71914775055138   -2.39594171234257
H         2.34433406685953    1.06410061106256   -4.76273775243017
H         0.02276651698557    1.30468141318846   -5.55514253755140
H        -1.83531750399147    1.20395611284155   -3.95910684466987
H        -1.53323496495959    0.35658457104767    2.02865944155724
H        -3.97179949952024    0.56845309085249    1.75470677544254
H        -4.89864253077780    0.94495723877241   -0.53460586840700
H        -3.32538430434701    1.10487641649843   -2.43566894920319
