82
 energy: -130.593048072100 gnorm: 0.000290290062 xtb: 6.4.1 (afa7bdf)
Ir        0.48481953293149    0.75047863632065    0.10817013392689
C         6.19984778744252    3.56600076492286    1.61650936147614
O         4.84413702462664    3.36112500094094    1.26203656058113
C         4.40282460511059    2.09774258065100    1.10073503672234
C         5.17365009575431    0.94982646398238    1.25576702531156
C         4.57422899170440   -0.28406822960441    1.05638983215944
C         3.23771314836182   -0.35368185740462    0.71667696600252
N         2.48010141421085    0.73464687472772    0.56813455891320
C         3.04590607528440    1.94345142842754    0.74936898609463
C         2.16861041703144    3.07449623350357    0.54993416093165
C         2.33233297181202    4.44843311976900    0.52225035079876
N         1.10228643367937    4.93232705883862    0.26533347115325
C         0.71723401675752    6.29824953191609    0.05003515575327
C         0.99922811523188    6.72768806442094   -1.40033540369461
C         0.53170726439339    8.12802231787773   -1.61554095233704
C         1.29753310203585    9.25492561313031   -1.70714050889511
N         0.50066721525431   10.35054999798123   -1.87032197778959
C        -0.80597085344375    9.95439614017607   -1.88539939098284
C        -1.97335521974922   10.69528328910481   -2.02258604053009
C        -3.16809318425635   10.01003430132694   -1.99906708931947
C        -3.20710936144007    8.62063433695674   -1.84734034596531
C        -2.05507477611373    7.88082162077772   -1.71023217740183
C        -0.82983064853133    8.54897175790827   -1.72418847283745
N         0.23231833212997    3.94764436739514    0.13732307164718
N         0.85274143909486    2.83733325586552    0.30437505449482
H         6.87408926780621    3.18323052439279    0.84643718641930
H         6.43426117189195    3.10386556207789    2.57870302029952
H         6.32035940332002    4.64441301988845    1.69711586820375
H         6.21643737529988    1.00689476904077    1.51984847903477
H         5.14868380887233   -1.18947833970327    1.16278321084631
H         2.75542837343896   -1.30446178813842    0.54707956698101
H         3.19140165768025    5.06606785133486    0.66339440914081
H        -0.35252150944245    6.37631347049640    0.25094061725386
H         1.26565218059836    6.93904954904311    0.74400050520096
H         0.47029292357772    6.04940113784479   -2.07420352244129
H         2.06969793547379    6.65590163180539   -1.60346185243002
H         2.36629704292436    9.35230968802282   -1.67851079930766
H         0.82472863961960   11.29579081087428   -1.98404495374860
H        -1.94211988355096   11.76727954948292   -2.14495242694059
H        -4.09506426776009   10.55283116537579   -2.10300534040554
H        -4.16585868361682    8.12393243295143   -1.84017569544285
H        -2.09765192711128    6.80633960957012   -1.60295658148436
C         0.28126974579005   -1.26428189819578    0.05984714124487
C         0.32594849783917   -2.10257822615596   -1.04880691947069
C         0.18681649354865   -3.47593618005000   -0.92702867761047
C        -0.00501989707515   -4.04838064861299    0.32009858239523
C        -0.05578617042531   -3.24511636577371    1.44004768063886
C         0.08629457101511   -1.85967610409971    1.32702881349553
C         0.03703130213397   -0.97599949285831    2.48933534226602
N         0.12139116044895    0.34008175351336    2.21760442649400
C         0.06658933136532    1.22321194293551    3.20472510813534
C        -0.06745551114073    0.86571368569428    4.53224427118583
C        -0.14255917704091   -0.48736850426372    4.83738387298234
C        -0.09122899530301   -1.41012035530412    3.81241525425167
H         0.47481865411074   -1.67942147688119   -2.03137846129385
H         0.22637981427570   -4.10011256302726   -1.80712398873238
H        -0.11663768558452   -5.11735421441611    0.41760936419445
H        -0.21228340687551   -3.70368105819657    2.40423880565346
H         0.12157010535925    2.26530151937694    2.91793846309571
H        -0.11257529120910    1.61909577534669    5.30150835413462
H        -0.24275569561236   -0.81318957130913    5.86148345561560
H        -0.14851499321069   -2.46195783371780    4.03656915111181
C         0.72747671337873    0.97278964080609   -1.88952735497887
C         1.90736408613881    0.98737443918591   -2.62291693462224
C         1.90018551056345    1.20971035905296   -3.99148765896716
C         0.70566468647068    1.42761644262741   -4.66009520326669
C        -0.48389003593396    1.41864387645355   -3.96053549516912
C        -0.48090142846075    1.19244398706746   -2.58378698583273
C        -1.67800756243471    1.15060614456862   -1.75795183995228
N        -1.44557861697746    0.90727866459000   -0.44554538783203
C        -2.48132284654717    0.84063807433500    0.39054258874558
C        -3.79063837195649    1.00800495548116   -0.01329585191397
C        -4.04570534066738    1.25921025633306   -1.35505932314445
C        -2.97943398511771    1.33080506258743   -2.22752991188301
H         2.85613814386725    0.81328465064282   -2.13259108972117
H         2.83093025080979    1.21103954310702   -4.53969762791414
H         0.70555032137099    1.59998275838957   -5.72542959196757
H        -1.40985289757033    1.58614241198927   -4.48866439278177
H        -2.25936204868697    0.63935687348161    1.42937616423059
H        -4.59102076606810    0.94027868177950    0.70508325462962
H        -5.05625958819889    1.39324352296515   -1.70806167865833
H        -3.14793952472355    1.52327815628327   -3.27400277616564
