78
 energy: -122.857742825105 gnorm: 0.000449194515 xtb: 6.4.1 (afa7bdf)
Ir        0.79077647348310    1.25900143629627   -0.18440688847066
C         6.58021694057314    3.97076994019257   -1.58917782374598
O         5.21611350823090    3.79018460780499   -1.25312603374092
C         4.75594203319785    2.53666381547667   -1.07328485606592
C         5.52058882383692    1.37715787892532   -1.16054058714515
C         4.90057114430071    0.15521832599783   -0.95153643031448
C         3.55003808015945    0.10789923515487   -0.66697096337186
N         2.79995239434720    1.20747463334946   -0.57719988198966
C         3.38434923807771    2.40521713206160   -0.77398646325844
C         2.50629283304852    3.54794279915059   -0.66401634252675
C         2.65334402217822    4.91875195889184   -0.78366299973281
N         1.42306458183671    5.41403947036585   -0.55364542937352
C         1.03479800516249    6.80593886736876   -0.46286253945480
C        -0.37807258037536    6.98504830748802   -1.01185739511754
C         1.12834789544267    7.25381525132923    0.98277806584992
C         1.81092741972476    8.41578427288263    1.31232333688228
C         1.88312553719502    8.83130702587849    2.63093224920335
C         1.28231400033273    8.08316695677430    3.62858287562412
C         0.60176391570356    6.92139700474480    3.30412770670033
C         0.52138722740560    6.50898334368516    1.98613930396907
N         0.56907746868543    4.44055815763870   -0.30180987180791
N         1.19901541300991    3.32604341008070   -0.36763669321758
H         7.23745485361458    3.60542715847724   -0.79607069222068
H         6.71326152134912    5.04495235488715   -1.70017165108907
H         6.82537111528116    3.47668322154859   -2.53246621215056
H         6.57269537182260    1.41672163304622   -1.38857743262162
H         5.46787456037143   -0.75865456298665   -1.01545387974720
H         3.04487229329396   -0.83403102427843   -0.51494506046086
H         3.50222771474331    5.52646981988295   -1.00596656123267
H         1.74657212040898    7.37790902383089   -1.06788559639100
H        -0.42618009767035    6.66640702673141   -2.05036951926777
H        -1.08319758117885    6.39699581957609   -0.43189819511409
H        -0.65810495428371    8.03278307898692   -0.95100394020990
H         2.28074097809554    9.00276271099353    0.53642778461984
H         2.41104574902739    9.73942940109270    2.87770278918490
H         1.34230504761879    8.40588034210755    4.65645683189274
H         0.12762144444441    6.33735931979222    4.07863931947346
H        -0.01642965071556    5.60574492308762    1.73217380797198
C         0.58408558848108   -0.73508162685963    0.10780579323662
C         0.17251320568657   -1.69769295023142   -0.80800052798493
C         0.08082139658172   -3.03673066881986   -0.46353919120574
C         0.39928285381998   -3.44860729594446    0.82056881141468
C         0.81132644717206   -2.52005005933775    1.75317400172944
C         0.91048548449025   -1.16815937430676    1.41343680757767
C         1.34200101129160   -0.15639588737504    2.37469677881783
N         1.30969350051460    1.11469007663492    1.93105921068728
C         1.66619469145084    2.10451135306036    2.73796452919189
C         2.08815100363526    1.90636865924456    4.03808371710372
C         2.14248673182578    0.60194861130149    4.51258392326842
C         1.76678724453644   -0.43124531019862    3.67852160701800
H        -0.08136842103041   -1.40079661163258   -1.81508126707417
H        -0.24289677991014   -3.75956336054479   -1.19734338355934
H         0.32353033039152   -4.49002716385250    1.09334066610459
H         1.04916356924592   -2.85400543419270    2.75136197976878
H         1.60440131361766    3.10500722463406    2.32937046289530
H         2.36613287386608    2.74329770164612    4.65755599983168
H         2.47197403432608    0.39863489316370    5.52007317477347
H         1.80519954281204   -1.44679187151971    4.03491163002167
C         0.21335557119023    1.23759710339824   -2.12482153818408
C         0.99979493499615    1.10211919032948   -3.26198141526249
C         0.44559569987989    1.16885922570722   -4.53109391524679
C        -0.91545514933672    1.37676248035683   -4.69185738301004
C        -1.72457016227977    1.51269315949786   -3.58231499965948
C        -1.17080868866505    1.44382517287289   -2.30340500259063
C        -1.93564161143022    1.56492789344878   -1.07198741571738
N        -1.19849319455520    1.45428127268073    0.05970364592420
C        -1.81138970691977    1.54673827128479    1.23960454466851
C        -3.16979996811191    1.75321172221334    1.37153061988646
C        -3.93952044399031    1.86910715470886    0.22132438148882
C        -3.31360397985759    1.77368578241282   -1.00432361276704
H         2.06428517656191    0.93040071181465   -3.17196744435121
H         1.07843893845055    1.05626989484339   -5.39920195348593
H        -1.34152012078529    1.42861452018740   -5.68200057546054
H        -2.78365998319577    1.67090498036575   -3.71562720609413
H        -1.19281692108486    1.44631304350214    2.12079257279764
H        -3.61476740436509    1.81813133900333    2.35086568488311
H        -5.00453940699852    2.02861230662142    0.28490216361665
H        -3.88601706409800    1.85845179155085   -1.91294600657943
