80
 energy: -121.975307047514 gnorm: 0.000194413117 xtb: 6.4.1 (afa7bdf)
Ir        1.15087231589467    1.09832541274721    0.00298282022779
C        -0.53959341433580   10.51700520313047   -0.74546519099002
C         0.00192684359214    9.13723052569000   -0.55694592744562
C         0.89137440709846    8.85127628575781    0.46754024216547
C         1.41391274023427    7.57821912588480    0.64745760545083
C         2.35527947282357    7.32180600988317    1.78659044319753
C         1.02310960923475    6.57682286410923   -0.24242212927189
N         1.53419966442770    5.26728105511606   -0.09746535561627
C         2.82540918318778    4.88165643280858   -0.04648622988732
C         2.77374433995332    3.50350240287741    0.07108224677387
C         3.76579186443777    2.45271883393618    0.14518788114512
C         5.11286738289600    2.76360016212704    0.28223555053168
C         6.03480073101265    1.73458147096602    0.32643476695190
C         5.56828728020216    0.44027085043033    0.19933280969928
C         4.20430521530647    0.18977997103384    0.05484995315383
C         3.74897888164972   -1.21513812920163   -0.13090848285299
N         3.30430733561453    1.18301985511174    0.05779201459306
N         1.46245476100368    3.16732778706967    0.08297170423746
N         0.73457256993856    4.21719508429717   -0.01271794488298
C         0.11605237760777    6.82546689370218   -1.27892054529301
C        -0.30995657886894    5.73900991311135   -2.21810385095745
C        -0.37509709236709    8.11189860812366   -1.41745830910948
H        -1.61021380734869   10.48637044494845   -0.93506817957710
H        -0.35200501417601   11.13508287240612    0.12796792220009
H        -0.06445410667359   10.98704558720534   -1.60619670921025
H         1.18471148955346    9.63384760123110    1.15107380939651
H         3.38574859755419    7.50721446999313    1.48197599778072
H         2.28312056986105    6.30014658407007    2.15465866455957
H         2.13229571946909    7.99783123060078    2.60797476467712
H         3.63797794354414    5.57039793320897   -0.12640390872750
H         5.41933747239653    3.79427182927037    0.35175313185462
H         7.08754820002784    1.93796203539637    0.44159142968988
H         6.25577922708536   -0.38996828980788    0.20466037631538
H         3.28367966686358   -1.58970489294755    0.77886235680490
H         4.59004618150446   -1.85733317751545   -0.37576817980316
H         3.00536903950299   -1.26757621488469   -0.92182424434114
H        -0.95049362307033    5.02381930623585   -1.70378440847974
H         0.54660252788099    5.19176685626334   -2.61078510816814
H        -0.86091846174023    6.16077430881014   -3.05354435537390
H        -1.07038425227577    8.32408406384793   -2.21562679676233
C         0.73498082561651   -0.88788972113071    0.07034037429197
C         0.38264628361081   -1.72968800322984   -0.98128601469082
C         0.00884624594520   -3.04626595101463   -0.76765210639226
C        -0.03157068530787   -3.55939744195206    0.51904529556580
C         0.30384330238138   -2.75280354435150    1.58561271484269
C         0.68564654603439   -1.42472675324420    1.37820066782531
C         1.04109754665729   -0.53935643559893    2.48380107216473
N         1.23725167027087    0.75012332979204    2.14683320081013
C         1.55027701137224    1.63401817578505    3.08419558530928
C         1.70041910059587    1.30451254698886    4.41675656702074
C         1.51782119763146   -0.02274926028873    4.78373694902478
C         1.18668314483522   -0.94663503527809    3.81362120866158
H         0.40331717068386   -1.35341716744108   -1.99446317302758
H        -0.25715990807367   -3.67231594210968   -1.60609055276472
H        -0.32890303719530   -4.58272204711857    0.68879298414535
H         0.25305357997655   -3.15830917187617    2.58454609225033
H         1.67921240825563    2.65734204886060    2.75585047269450
H         1.95255064179830    2.05944780120484    5.14327761343478
H         1.63243120992915   -0.32694556192567    5.81275490465935
H         1.04754074858381   -1.98012949144855    4.08315134882186
C         1.01187352853559    1.30521603548765   -2.00537619439912
C         2.02163933532596    1.25249448809066   -2.95866725019218
C         1.76421322920382    1.52465100550485   -4.29368606040493
C         0.48517318140642    1.86500269375867   -4.70627352393722
C        -0.54091250673663    1.92212468316116   -3.78510341116020
C        -0.28678359606190    1.64204305084582   -2.44218602799207
C        -1.29594372973376    1.65464416648655   -1.39522386431725
N        -0.83283211640652    1.33418854215511   -0.16416091620348
C        -1.68219905335701    1.30055700017807    0.85982564346485
C        -3.02753843508520    1.58273192504180    0.73214558233260
C        -3.51986994349661    1.91937487295220   -0.52188571590766
C        -2.64497761632816    1.95358429289920   -1.58806412102193
H         3.03083429313991    0.99001898750483   -2.67027399003356
H         2.56585010305807    1.47205033484995   -5.01572733685993
H         0.29172221854629    2.08018556597560   -5.74594524961042
H        -1.53476131128683    2.18344664797237   -4.11453558034054
H        -1.27583554029694    1.03066675872638    1.82435823221546
H        -3.67360321901203    1.53805634761193    1.59331842955045
H        -4.56531746030542    2.14663714094745   -0.66026906087306
H        -2.99947162523767    2.20854391816583   -2.57303142362463
