97
 energy: -165.812412325895 gnorm: 0.000528413305 xtb: 6.4.1 (afa7bdf)
Ir        0.67063073455146    1.25063150937109    0.16164326995831
C         1.07874805379448   13.57796285009118   -1.48930657538104
C         0.68748104073766   12.61638317438512   -0.37955871589353
C        -0.77803325097111   12.21371842649389   -0.48951606968351
S         1.73664182128825   11.07747212280066   -0.52529042419711
C         2.10484074192316   11.01856879972142    1.26828423608456
C         1.34788705044201    9.95556621598483    2.10733836289573
N         0.66822329781592    8.93965618101472    1.36453577153375
C         1.06244808353241    7.65677534401096    1.35178801376916
O         1.92377331659761    7.18113161168043    2.05288614533330
C         0.25750647033302    6.80306926446478    0.33537842738417
C         0.17945714237734    7.51170445535507   -1.00018258352078
C         1.27210439849764    7.58101949243973   -1.85385670671693
C         1.19117499749160    8.30305350223013   -3.03139137100975
C         0.02377285476856    8.96828257152148   -3.36281418490646
C        -1.07059126113236    8.89997503580731   -2.51774714713832
C        -0.99478452528107    8.17455960866315   -1.34189870696222
N         0.83849039520673    5.49210012285180    0.26385502946937
C         2.13794604550669    5.14664772473709    0.22628616598011
C         2.12560156265521    3.76225200544907    0.23297369189129
C         3.14952412854569    2.74366678755836    0.21405104981158
C         4.50881796782842    3.04291484928631    0.26879689709451
C         5.43466450140530    2.01886393661925    0.25753996108309
C         4.95434321033116    0.71478252934567    0.18451527729430
Br        6.14150562977138   -0.75915207433825    0.16571024886904
C         3.58910138185443    0.48398301215652    0.12831029738201
N         2.69465114679742    1.47050080688451    0.14909888259742
N         0.82143662435322    3.38311232742478    0.27352368732825
N         0.06813325980815    4.41773277690646    0.29737067993947
C         0.45316426513385   11.14851852710111    2.51901494017070
O        -0.55981608761786   11.27891157928084    3.13559173693739
N         1.26934737529322   12.03110150451333    1.86107007069062
C         0.98063776878554   13.17448637941156    1.04652130925007
C         2.19246744172697   14.10529789102321    1.05573191567174
O         3.32944682696409   13.73768861605101    1.14010687637867
O         1.82093197161441   15.37660253932455    0.96254391313974
H         0.57413695316208   14.53230481978709   -1.35192127397955
H         0.79018872392592   13.16460645174769   -2.45290584461294
H         2.15370581060025   13.74396568745924   -1.49967951663805
H        -1.40563246760792   13.10169368508337   -0.52972537236217
H        -0.93498701637630   11.63495370623312   -1.39720416410708
H        -1.08870566458699   11.61349040675125    0.36426960721689
H         3.17619301077644   11.13637173385515    1.42388216621360
H         1.93067753270176    9.48712869119801    2.90157485681306
H         0.02331469085808    9.25711475524671    0.65196412619552
H        -0.75576428540165    6.66049126068191    0.73028540045300
H         2.19282789623156    7.07581407202455   -1.60599221115251
H         2.04644272905920    8.35196163741881   -3.68660089948850
H        -0.03343628761849    9.53601414838216   -4.27822204605359
H        -1.98840631054459    9.40773010271593   -2.77280983125379
H        -1.85487577652877    8.11961861643718   -0.68917720320793
H         2.93783028293933    5.85379158132270    0.23307241753753
H         4.82760161363996    4.07086149266667    0.32656987143352
H         6.49340025692807    2.21734207822600    0.30246487146675
H         3.20631367756000   -0.52457989131445    0.05865835952891
H         0.11051352225510   13.71060933712254    1.43184525126489
H         2.58842702002586   15.97284263355525    0.97444240745844
C         0.71420684595558   -0.77516413572697    0.16645372202050
C         0.60239887360042   -1.63346533001884   -0.92104837160727
C         0.68131893814084   -3.00912186754402   -0.76973153035481
C         0.87285340195029   -3.56116068060599    0.48627466766091
C         0.98445543757513   -2.73616511565257    1.58615443757732
C         0.90901803756242   -1.34837414981137    1.44341394154953
C         1.02572748832927   -0.44164261036592    2.58385354515518
N         0.87062701471702    0.86550438496201    2.30005022205347
C         0.94667373536762    1.76639693385759    3.27017733593893
C         1.18877684977448    1.43631214277916    4.58944694474608
C         1.36238472541076    0.09462946798536    4.90357086106874
C         1.27899436528606   -0.84691283214071    3.89750050739664
H         0.45400277628491   -1.22584277793751   -1.91023524984716
H         0.59249945294001   -3.65020865233970   -1.63375046950764
H         0.93371216588580   -4.63167433829225    0.60718909165218
H         1.12760654116125   -3.18009983002416    2.55901172323212
H         0.79956984136282    2.79843664097525    2.97979484188890
H         1.24056791086989    2.20308978943330    5.34465437943464
H         1.55836827064988   -0.20895353752885    5.92044390134882
H         1.41271899271055   -1.89016425875061    4.12881555199387
C         0.40842684207403    1.44288502492155   -1.83727586339154
C         1.37360794854839    1.58673620990779   -2.82580342480252
C         1.01985019114425    1.77347224822326   -4.15345941341676
C        -0.31523886613298    1.82414854617988   -4.52224910828360
C        -1.29832375953472    1.68264768182642   -3.56396898262294
C        -0.94621618606208    1.49187329171804   -2.22758896740698
C        -1.90173287585017    1.32236650573731   -1.14334112015074
N        -1.33927584878087    1.15586524903773    0.07809623765172
C        -2.13236528084097    0.98458112936066    1.13563339718506
C        -3.51003435826156    0.96621146795110    1.05120791126421
C        -4.10218315368934    1.13428034682787   -0.19363272971803
C        -3.28877423984072    1.31452427911500   -1.29335939836290
H         2.42514076412253    1.54488897177888   -2.57338032767818
H         1.78962144292631    1.87800278185607   -4.90385325297360
H        -0.58519406433315    1.97009812464175   -5.55684201798496
H        -2.33541226026972    1.72075241371963   -3.85948953209513
H        -1.64865734089272    0.84997619511105    2.09320716807374
H        -4.10422575985762    0.81982368963942    1.93814356587025
H        -5.17576322824156    1.12159604093696   -0.29877157304239
H        -3.72085992646773    1.44564354396955   -2.27141896674322
