58
 energy: -109.883825410558 gnorm: 0.000571142558 xtb: 6.4.1 (afa7bdf)
Mn        0.46670676874275    0.83775898627206   -0.28506665496585
C        -0.42007980750856   12.39033299481326    0.03498287028785
O         0.05186171128028   11.04699461405262    0.05769060982509
C        -0.88584954087109   10.10065419041997    0.09980373875380
O        -2.06941084179674   10.31835535296600    0.12192842769984
C        -0.30455756491428    8.72424132020466    0.11225374706696
C         1.06785430381225    8.50154887071673    0.15779856069299
C         1.56221669923998    7.21129820028084    0.16343448496297
C         0.67785237551372    6.13717233512151    0.11986692057561
N         1.14419354397081    4.81025140642892    0.10274710198000
C         2.41631904474842    4.34983044332021    0.10353160440024
C         2.29259569227606    2.97587501865082    0.04413904998968
C         3.18368041004170    1.83650943236554    0.02752326761418
C         4.57206501609806    1.92431296256556    0.08971624176543
C         5.31908017962522    0.76309955101998    0.11771002138013
C         4.63944206472526   -0.45041652914462    0.08984097057951
Br        5.57875031531814   -2.09224652321138    0.15632690441427
C         3.24999800907761   -0.46013614845728    0.01146981555222
N         2.53019850486147    0.65388091294961   -0.02479620338792
N         0.95752316535903    2.70280938662281    0.01625142227378
N         0.29081547277914    3.79653712848222    0.05278959707121
C        -0.69835793832066    6.35225668496780    0.07811144621886
C        -1.18243022449505    7.64342956280467    0.07604878472006
H        -1.04990385040961   12.55415905151650   -0.84108982555621
H         0.46334524712000   13.02159607256410   -0.00392190323558
H        -1.00509899699084   12.59983866013930    0.93215763805166
H         1.74354909229529    9.34093253417004    0.18691690510475
H         2.62883562765617    7.05755757905414    0.19828787185643
H         3.28066314337036    4.97631348423843    0.13603975070471
H         5.05048451904149    2.89010467528344    0.11683920523725
H         6.39608690769253    0.79109406165915    0.16346649446086
H         2.72071042557947   -1.40319966639503   -0.02373327439128
H        -1.36524771193214    5.50600565903780    0.04259062869871
H        -2.24298202314032    7.83965048624657    0.04275660114568
C        -1.26528427749843    1.24111199113311   -0.52094933000956
O        -2.35931464669162    1.51190293025777   -0.70413319865551
C         0.16392566483145   -0.90951553453993   -0.53574878373504
O        -0.05407690115020   -2.01779901425117   -0.71729961745333
C         0.72947711151508    1.01348284230172   -2.04637923730702
O         0.89413433142126    1.11282107932944   -3.17255675713300
C        -2.09300398548146   -0.84952443449099    4.29915482530004
N        -1.04066777578444   -0.21813017401389    3.55264190683853
C        -0.96516191922640   -0.07756168587166    2.22369875090996
N         0.12778765612752    0.54646964651409    1.81806316027282
C         0.82773515553227    0.84101264322344    2.97322095399219
C         0.09112214986932    0.35437536008481    4.07662328697571
C         0.53097845811264    0.48579565241902    5.38696684163165
C         1.73620702194093    1.12331120213084    5.58255645161253
C         2.47552009869837    1.61534842331518    4.50438505543263
C         2.04221031298703    1.48639415243099    3.20283718819938
H        -1.71387780703589   -1.73652565146530    4.80936912355811
H        -2.89344127770596   -1.14187159792695    3.62349563651715
H        -2.48811191660651   -0.15822316637222    5.04434843898369
H        -1.73552737901583   -0.44765472815763    1.56872814749715
H        -0.04620116642535    0.10301520430551    6.21292831542920
H         2.11939249723516    1.24663948386699    6.58276650390716
H         3.41469090761765    2.10988749776610    4.69913615194485
H         2.63980294689899    1.87881312612551    2.39656236375783
