58
 energy: -95.967256965827 gnorm: 0.000795774160 xtb: 6.4.1 (afa7bdf)
Mn        0.46372818315827    0.82491401926819   -0.30607643222361
C         4.64134356483095   -0.47072041922705    0.02142048613621
C         5.31374551701515    0.74126851863785    0.06709745962298
C         4.57006480340351    1.90808422070663    0.06053423318020
C         3.18374556724184    1.81760859222379    0.00071350202130
C         2.29413147338525    2.96070442386437    0.03137909860404
C         2.41727064406744    4.33513763056453    0.11940568172953
N         1.15151862541230    4.79068192248347    0.12911498320389
C         0.68559103721431    6.15915261599314    0.17711889950052
C        -0.26442046635926    6.33783873659058    1.36306998837901
C        -0.78894660771090    7.77027011666177    1.39984872505545
C        -1.49841246923537    8.11256478858076    0.09400711054227
C        -0.55168903997731    7.93122077040054   -1.08763759077099
C        -0.02478335662753    6.50021259578984   -1.13598508550336
N         0.29604673414325    3.79133211791413    0.05567617329876
N         0.96029535208748    2.69314959264987   -0.00238593677718
N         2.52864011958837    0.63843014218496   -0.06184150050357
C         3.25703151068501   -0.47520450597349   -0.04734156532232
H         5.17854685450480   -1.40475678888098    0.03193257932111
H         6.39077808962845    0.77691540163111    0.10886281274419
H         5.04310174287092    2.87623778624029    0.10036276848482
H         3.27107017043155    4.97708811026732    0.16759834381183
H         1.56617742260176    6.79803345413601    0.30214015178666
H         0.25720693105538    6.10247822921734    2.29402849513656
H        -1.09630556781061    5.64049986456399    1.24983245035015
H        -1.47545811893355    7.88070919536462    2.23943597953090
H         0.04311599496361    8.46025792085934    1.55593742044863
H        -1.85461761037124    9.14207852627043    0.12673471321316
H        -2.36522565221943    7.46113270316592   -0.03101936905434
H         0.28554855444134    8.62649901547044   -0.99604681573370
H        -1.06980156586885    8.15426897990581   -2.02028008640681
H        -0.85354795381419    5.80339274015876   -1.27465560934905
H         0.66699854630593    6.38141379776616   -1.97310515952617
H         2.71922597061224   -1.41298177012794   -0.09447470399200
C        -1.26865032253374    1.22683690969858   -0.52325256445830
O        -2.36735986046615    1.49227033882517   -0.69165614759148
C         0.15674722839205   -0.91934411825988   -0.55283941166039
O        -0.06929334461341   -2.02739974015707   -0.73438944487106
C         0.71569135927678    0.99556097587785   -2.06735153848117
O         0.86376804165593    1.09026279845715   -3.19721930522736
C        -2.05718815350527   -0.85761743737839    4.30607196564314
N        -1.01864627892133   -0.21131730062471    3.55333469883396
C        -0.93407692389328   -0.10326043311660    2.22100953918950
N         0.14098148462899    0.54501118960178    1.80896877069656
C         0.81972533745617    0.89205301677237    2.96180413142747
C         0.08813540173169    0.41269649102247    4.07183452827370
C         0.51090785160889    0.59627717322252    5.38140968317663
C         1.69297945775659    1.27831494234185    5.56877689082688
C         2.42809808394380    1.76082674094637    4.48353332046880
C         2.01233631200273    1.57951094825576    3.18259476637006
H        -1.65004825527580   -1.70512248421204    4.86010702279946
H        -2.82993389330283   -1.21328538285908    3.62827964380970
H        -2.49841229702939   -0.15516640855002    5.01446853936569
H        -1.68620990845331   -0.51552456531881    1.57017615830358
H        -0.06101388876123    0.21905511486334    6.21365727695573
H         2.06118987510241    1.44397884028616    6.56860353475111
H         3.34979211889748    2.28955417670506    4.67216176412228
H         2.60691157350398    1.96115716835142    2.36934397635185
