64
 energy: -114.567780554505 gnorm: 0.000402079319 xtb: 6.4.1 (afa7bdf)
Mn        0.09663311168389    0.92466888574004   -0.19419831614689
C         2.06230760657015   10.50021274667713    2.04063810722320
O         2.30863865273723    9.13092071495810    1.79951726906190
C         1.32167165035984    8.37806409615893    1.26197856634719
C         0.05359011939944    8.83323573697036    0.91005078537827
C        -0.88097599223534    7.97155431074463    0.36346126282210
C        -0.59415396409152    6.62791961500499    0.14670175376194
O        -1.42996521174098    5.72491231652977   -0.40982804521420
C        -2.72748263274697    6.13407174597491   -0.78500331788661
C         0.68797607363010    6.17417208255459    0.50881435421609
N         1.02834625396831    4.82713035302995    0.29432976015280
C         2.23876399292353    4.34056768171062   -0.06408545645792
C         2.04375777575235    2.97947258585098   -0.17860274395551
C         2.84609118537414    1.81714181301686   -0.48874348836994
N         2.15700790814515    0.66334610940516   -0.45588462103223
C         2.81307742329241   -0.47227151210540   -0.68367855097561
C         4.16923431701606   -0.49984508276120   -0.96104271570219
C         4.88945941587334    0.68148441688508   -1.01678053098478
C         4.22527873779644    1.88091389107908   -0.77148646273761
O         4.77942696604325    3.10617644119105   -0.77361632066734
C         6.15279637061479    3.23045448989034   -1.10036748274729
N         0.73520425861953    2.74529417039887    0.12220984063533
N         0.14791953602523    3.84971367697726    0.40410531809397
C         1.62517452191066    7.03339164804135    1.05593426460805
H         1.84087998659989   11.03594972496266    1.11320749784140
H         2.98266024222505   10.89034684722822    2.47063726422825
H         1.24312549763182   10.63963787709250    2.75163827851862
H        -0.22338166712260    9.86408294399886    1.05709851273237
H        -1.84937254474050    8.36432282484462    0.10128966861476
H        -2.69721806588606    6.90605288546033   -1.55920775341458
H        -3.20543531541885    5.24074448302060   -1.18207596205239
H        -3.29553836559665    6.49626956442438    0.07601535230755
H         3.09987594704045    4.94853408184318   -0.23357949902600
H         2.24124366045839   -1.38881426459443   -0.64787058406098
H         4.65959493625871   -1.44278426540597   -1.13931126050027
H         5.94257714893524    0.66223065213139   -1.24412944559578
H         6.78272156500326    2.71405596785230   -0.37170008664004
H         6.35713743744600    2.85108008684137   -2.10436146111388
H         6.36375908544037    4.29728631715447   -1.06838814993842
H         2.59932841337683    6.67803028645524    1.35057585054115
C        -1.61585091688471    1.40429137799266    0.02483793412894
O        -2.70646960123245    1.73442586326311    0.11435096523703
C        -0.33679352340419   -0.77858231963413   -0.51440240847900
O        -0.64674104771670   -1.85726497306706   -0.74977453775115
C        -0.06152930894203    1.25585845876458   -1.94184636064200
O        -0.17636797466320    1.46042972189451   -3.06154401982191
C        -1.33187825711910   -1.08933444870994    4.73683974536163
N        -0.48673543178162   -0.38435359946220    3.81434092712870
C        -0.68567933738806   -0.21915960058963    2.49947470762065
N         0.26306262455787    0.48005011628829    1.90398650249831
C         1.15945519397354    0.80314874646803    2.90453060758152
C         0.68732384748016    0.25727558913727    4.11963515911866
C         1.36672413371511    0.40701582072402    5.32098475935925
C         2.54316978042616    1.12299655892555    5.29005649562233
C         3.02595159254575    1.66758623533108    4.09775109368601
C         2.35603556331953    1.51867671917326    2.90302257224603
H        -0.78514217378946   -1.91751391854821    5.19092376734450
H        -2.19839038613002   -1.48104772538692    4.20856125713595
H        -1.66877958596135   -0.41619523560279    5.52682678772410
H        -1.54679529537918   -0.62920608395328    1.99965984832360
H         0.98843429984864   -0.01889971521882    6.23625927514868
H         3.10458237152738    1.26667642205521    6.19949617427182
H         3.95261987527868    2.22050578157583    4.11603088916325
H         2.75991951904105    1.94654326131115    2.00056640615198
