58
 energy: -102.784681239302 gnorm: 0.000684922263 xtb: 6.4.1 (afa7bdf)
Mn        0.44809768059239    0.79605376712598   -0.29762785888396
C        -2.68743561203479    7.84095427362449   -0.06041017671122
C        -1.21860549593576    7.60289363652088    0.03714825835970
C        -0.70631075175672    6.31575726017070    0.01561622841455
C         0.66427235442319    6.09855822198576    0.10425051225725
N         1.12921242757358    4.77316192430384    0.07051730975816
C         2.40094962337353    4.31199271078616    0.05635904410445
C         2.27582253468332    2.93813924476946   -0.00143291610219
C         3.16703249503287    1.79584477337539   -0.01968042383868
C         4.55357765521403    1.88693274985024    0.03266811837625
C         5.29717610174435    0.72015981162017    0.05533632989850
C         4.62496198832399   -0.49251666082707    0.03336101977946
C         3.24039418012380   -0.49790807219760   -0.03020059924177
N         2.51226370539425    0.61540260206870   -0.06097586621042
N         0.94193812353183    2.66572727585020   -0.01420433063351
N         0.27474479964909    3.76053050849081    0.02972801065889
C         1.54312912487742    7.16889497314728    0.21705322270770
C         1.06222079068608    8.46988156099060    0.23932288140354
C         1.99765142082793    9.62642578361091    0.35474549766843
C        -0.31733740840445    8.66371810079382    0.14907599380233
Br       -0.99392905416531   10.44110448908302    0.17951249691354
H        -2.91492462237414    8.44866518976845   -0.93566564775980
H        -3.22840050711498    6.90242638914851   -0.13470810198496
H        -3.04281187841468    8.38597011885157    0.81359189302657
H        -1.36776877400883    5.46942535910643   -0.07463627393445
H         3.26503653135728    4.93933357449600    0.07398906025874
H         5.02797101301139    2.85493127672145    0.05468167665732
H         6.37439013568261    0.75646590801608    0.09159320350392
H         5.16224037066516   -1.42622463989925    0.05797885425594
H         2.70196969583551   -1.43608941894959   -0.05914289156969
H         2.60740591759999    7.01341154237734    0.29046941349341
H         3.02911684544847    9.29244542634256    0.42064800480428
H         1.89599372205446   10.28206300122492   -0.50948888672201
H         1.76246156765303   10.21793001080768    1.23893044317183
C        -1.28717780042339    1.19126349979945   -0.50688534144105
O        -2.38628892370513    1.45628087308043   -0.67275097204027
C         0.14495778954007   -0.95009174250333   -0.53837562950652
O        -0.07889304312413   -2.05867635949088   -0.71871253242936
C         0.68360263846572    0.95989605423345   -2.06253051223359
O         0.82566025478758    1.04811234573496   -3.19345585738759
C        -2.02811862372478   -0.87754077345088    4.33925322262208
N        -0.99940145664084   -0.22892095574541    3.57506541990360
C        -0.92384601195446   -0.13115635764620    2.24159295773348
N         0.14198904329479    0.52499442402690    1.81782192248041
C         0.82348555745967    0.88940077317386    2.96371592667234
C         0.10301184160856    0.41208022098296    4.08180602874898
C         0.52943889429991    0.61260440699163    5.38764972720232
C         1.70462091513471    1.30932589807315    5.56306984854495
C         2.42958515014221    1.78903581497772    4.46975394265809
C         2.00988819302108    1.59121167603935    3.17256074041749
H        -1.60578582932821   -1.70131519637527    4.91657394698237
H        -2.78912149171950   -1.26676618780017    3.66713804408884
H        -2.48827440045625   -0.16714232861889    5.02725370148206
H        -1.67473701946549   -0.55708370147347    1.59821043723725
H        -0.03532239392687    0.23756496377989    6.22572967842288
H         2.07547855197396    1.48882395610883    6.55943916125216
H         3.34648197289932    2.32905429477849    4.64906668776120
H         2.59697649072046    1.97210972818276    2.35343295114772
