55
 energy: -99.611719839423 gnorm: 0.000462878531 xtb: 6.4.1 (afa7bdf)
Mn        0.54197134658732    0.72106266557201   -0.28033516105300
C         2.93369322418629   -1.81100540006907    0.08681519541458
C         3.52571916315584   -0.44430042540008    0.04203659893981
C         4.91368050154438   -0.29426674489739    0.05631936222348
C         5.47994411668121    0.96520185276573    0.02151607086268
C         4.63827566145152    2.06445999747836   -0.00021203384925
C         3.26734733539811    1.84648313180180   -0.01074424575669
C         2.30371182074251    2.92885328081883    0.02199304361712
C         2.36337149947668    4.30685677968802    0.07758126237709
N         1.07066274473593    4.70545037390285    0.11716052793418
C         0.54404603598196    6.00663680284716    0.15385741267895
C         1.36089504408930    7.11101011604722    0.37755248027316
C         0.80848236850943    8.37665181671614    0.39624772810753
C        -0.55613965151782    8.53670317522055    0.19589860886260
Br       -1.30718367353603   10.27649474952402    0.22401295616466
C        -1.37579144003985    7.43618560819685   -0.02131490070744
C        -0.82571096550952    6.17156160147880   -0.04315696283772
N         0.26603841858372    3.65140617777190    0.09265127833195
N         0.98653744166307    2.59159573387785    0.03543983881322
N         2.71319447760706    0.61403082549564   -0.00772830280416
H         2.57076374744255   -2.09030806654457   -0.90302618107230
H         3.67534009251045   -2.54258795484381    0.39492085336799
H         2.09421653009989   -1.84040593644166    0.78103222618206
H         5.53698598589083   -1.17294018508343    0.09199701939698
H         6.55091724347937    1.09140456028378    0.02200159718031
H         5.02492826684332    3.07017662412180   -0.00954996282870
H         3.19386407117423    4.97838424304667    0.07028208994887
H         2.42008657764955    7.00079736318073    0.54570353931317
H         1.43383576433017    9.23839253569290    0.56722605886383
H        -2.43433197172275    7.57183724687329   -0.17553497326941
H        -1.44286820693504    5.30446989430216   -0.21529175200585
C        -1.17939505485708    1.11539461397738   -0.55369743247889
O        -2.27360586506084    1.36392197911022   -0.77128014593056
C         0.13013455754511   -0.99054249695754   -0.59237790543020
O        -0.26558153437053   -2.03567024435717   -0.85161176307155
C         0.85046613500518    0.89661962450791   -2.03132579184456
O         1.02697243433473    0.99134594458886   -3.15778783461628
C        -2.08075847331808   -0.83269310136742    4.31838746932721
N        -1.01382586769786   -0.23734560472679    3.56320269583983
C        -0.90984227262345   -0.16492917492113    2.22967968277312
N         0.18988793351577    0.43992419752036    1.81618504249492
C         0.86529106755343    0.79398210224598    2.96924974522283
C         0.10535050875635    0.36564562327454    4.08078717791833
C         0.51778950284553    0.56933890906315    5.39079863384221
C         1.71919035112915    1.21748583947585    5.57580843463880
C         2.48402399674979    1.64631398864745    4.48835404753478
C         2.07846473160005    1.44551435459240    3.18703562892455
H        -1.70666370414066   -1.67932204102354    4.89681987973590
H        -2.85700359461824   -1.17956205300462    3.63977915405971
H        -2.50696919201860   -0.09991688774427    5.00510703618536
H        -1.66490558735243   -0.57175252309203    1.57876083760256
H        -0.07631888331579    0.23248763389577    6.22479035872000
H         2.08041722105094    1.39696719254952    6.57578449019467
H         3.42123508577662    2.14736739797992    4.67578277264762
H         2.69599393294257    1.78309428248574    2.37124351306102
