65
 energy: -107.696899333266 gnorm: 0.000217783391 xtb: 6.4.1 (afa7bdf)
Mn        0.58495551202806    0.63047717147279   -0.49199467643174
C         2.92688853750594   -1.88759565052972    0.22393067777035
C         3.55148566848472   -0.56908811144101   -0.07884762435251
C         4.94042840769879   -0.46926375156205   -0.17622517513385
C         5.53552140958761    0.74850387771450   -0.44346044819016
C         4.72376077213764    1.86210008556534   -0.57813048114597
C         3.35019145947708    1.69445735260189   -0.47016099345670
C         2.41833251824493    2.80301200967455   -0.52998554526187
C         2.51589733609322    4.18214235232339   -0.52116453972944
N         1.24221303576034    4.61157287118473   -0.47416729504961
C         0.75284171002866    5.96877566920197   -0.36936398613994
C        -0.13646756522671    6.29046859979902   -1.57090639972501
C        -0.82783631768182    7.62552997089990   -1.33127164767358
C        -1.80058061353303    7.48726058541365   -0.16672582777503
C        -1.16969617194645    6.84477034209835    1.03528640293264
C        -1.79506410691213    6.95568001678148    2.27348921174439
C        -1.26370298722133    6.36494396502425    3.40285145118413
C        -0.07778064301535    5.65534492028713    3.31371441133788
C         0.55795904656385    5.54414200070725    2.09308010241974
C         0.01706373941821    6.12310011974862    0.94936836781417
N         0.40655257685205    3.59452347744849   -0.45715581417697
N         1.09328810397230    2.50938507647718   -0.48709192407216
N         2.76541280418569    0.49765883309959   -0.24456958764545
H         3.66418848434552   -2.58247129944337    0.61608585050626
H         2.50482103917328   -2.31639338411193   -0.68564061181020
H         2.12455867201792   -1.76936007154665    0.95184261873330
H         5.54150032243078   -1.35414542200018   -0.04357882605451
H         6.60678710777026    0.83375350865421   -0.53345008323228
H         5.13426815313446    2.84021635905458   -0.76795185777363
H         3.35589821951933    4.84361370874050   -0.54217182381879
H         1.63258047547502    6.62515427159782   -0.37208960160117
H        -0.88297042697890    5.50101403922752   -1.67855097290724
H         0.46861008699563    6.32248656116971   -2.47908663424574
H        -0.08166138688146    8.39039860984195   -1.10601376002534
H        -1.36405981266192    7.93338791421340   -2.22862720552271
H        -2.65022192570195    6.87089652234813   -0.47720304161643
H        -2.19737516604572    8.46512303234391    0.11137800513322
H        -2.71473699944367    7.51729888778377    2.34303560825815
H        -1.76646540518302    6.46454782815400    4.35245597217284
H         0.35601015931352    5.19485780604849    4.18835677827276
H         1.49157385971020    4.99943082950566    2.03679367625310
C        -1.12210691195777    1.02423402533067   -0.84188497596315
O        -2.20946785049728    1.26324945409715   -1.10207694002360
C         0.10745392110487   -1.09070837568149   -0.43738594757329
O        -0.32977427114442   -2.15155462475727   -0.45983436248846
C         0.89191742110220    0.45000777695371   -2.24220166156000
O         1.07812865281427    0.31458467696939   -3.36327260763006
C        -2.21932781842986    0.44259534826374    4.24673632706130
N        -1.09301896207628    0.75359283247824    3.41168160885371
C        -0.91148570889279    0.39584692056860    2.13339596704108
N         0.22889946559373    0.82130855074032    1.62080478468356
C         0.85425966275889    1.50608054365413    2.64561542476627
C         0.01371994711233    1.47618060968105    3.78081201831464
C         0.35595981973674    2.08616079115387    4.97981280415209
C         1.57326208816359    2.72957219756399    5.03038339328989
C         2.42811402590540    2.74692525544302    3.92562178203462
C         2.09245767793906    2.14047351323513    2.73473358442566
H        -1.89294044816964   -0.12130871831479    5.12226517610629
H        -2.93429433420163   -0.15424748511821    3.68463973896206
H        -2.70459416414643    1.36104712908569    4.58093854210620
H        -1.63966070303643   -0.19072695485190    1.59961572566686
H        -0.30130813237960    2.05304714392928    5.83371032481211
H         1.88177696353158    3.21840793755552    5.94109660317104
H         3.38202985126893    3.24452442684674    4.01306269311443
H         2.78688711662941    2.14651053572400    1.91047624872842
