61
 energy: -105.958903116075 gnorm: 0.000654338477 xtb: 6.4.1 (afa7bdf)
Mn        0.53003261452309    0.80709298278060   -0.28128488240475
C         2.85788831944281   -1.78317542773389    0.09381307899771
C         3.48331537195349   -0.43132902979532    0.04806387255620
C         4.87437144459323   -0.31601884093047    0.06435844900135
C         5.47168253226990    0.92900356026975    0.02894461053044
C         4.65769015677156    2.04859447751662    0.00536344007470
C         3.28163119620956    1.86511429790126   -0.00774685440447
C         2.34537906917287    2.97082121846871    0.01997492473795
C         2.43873435202384    4.34796926745578    0.06250646261827
N         1.15729694867609    4.77919721719523    0.09820596588326
C         0.66172582326938    6.09359289869521    0.11788929370604
C         1.51723958202365    7.18606497393344    0.19008031851651
C         1.00673283193612    8.47594595200261    0.19047621897492
C         1.91736819747744    9.65602255564360    0.25821008838547
C        -0.37836212415243    8.63590588541712    0.12223878251838
Br       -1.09655878965106   10.39743293731925    0.12319347280470
C        -1.25660740222408    7.55251201460030    0.05289144397796
C        -2.73228019434010    7.75453827259421   -0.02189134418552
C        -0.71491105105020    6.27729078069659    0.05069534817708
N         0.32738046712044    3.74581678512977    0.08517355989530
N         1.02099038088609    2.66667884278286    0.03732868818108
N         2.69736686756772    0.64663291147438   -0.00520982782038
H         3.58225005653156   -2.53279627940269    0.40013526702964
H         2.01988043112527   -1.79234841344245    0.79028410466936
H         2.48543761750037   -2.05343355727573   -0.89518507043555
H         5.47552110658072   -1.20991598470648    0.10164965071189
H         6.54546274367048    1.02859757619165    0.03053669736431
H         5.06887327440486    3.04451535454606   -0.00367277118731
H         3.28726616884929    4.99623714632988    0.05568674796899
H         2.58600227508944    7.05650824357993    0.24699217346295
H         1.78092627309145   10.28870535853891   -0.61836552759740
H         2.95757207709673    9.34718245141188    0.30778906174691
H         1.68863393840605   10.26252685264345    1.13392223925931
H        -2.99000149497546    8.33980949215584   -0.90407330124780
H        -3.25216179362828    6.80231440396527   -0.06839209973019
H        -3.08434389865602    8.30779600866076    0.84832303555788
H        -1.35791136270706    5.41413589435457   -0.00893577517689
C        -1.18222554434216    1.24539211033236   -0.54300599021854
O        -2.27193370919344    1.52484535756649   -0.74595655611085
C         0.07911579085738   -0.89241167746090   -0.60072763984174
O        -0.33718588277853   -1.92908635697436   -0.86338981415912
C         0.84111176048849    0.98350842195059   -2.03167250720028
O         1.02365937445009    1.07593232408247   -3.15741437507614
C        -2.08470110213426   -0.79202527480740    4.30496901706532
N        -1.01811688774231   -0.18957677115236    3.55512406598528
C        -0.92457726179413   -0.08663053543856    2.22270651907073
N         0.17729158205525    0.51738669754851    1.81421218183215
C         0.86450857150011    0.84028399449604    2.96935619052834
C         0.11055575335539    0.39163378111296    4.07700379406046
C         0.53540634789255    0.56006933184538    5.38802416592240
C         1.74286428312529    1.19531548029896    5.57827123279104
C         2.50037401341337    1.64696465598727    4.49488489636767
C         2.08270731806034    1.48056119903064    3.19249304253245
H        -1.71248356800782   -1.65041113500306    4.86688877041624
H        -2.86562195360971   -1.12324300447014    3.62408826638255
H        -2.50398691729818   -0.06919616260247    5.00617029455844
H        -1.68899936310997   -0.47061319516561    1.56878482415458
H        -0.05456627890287    0.20720035510898    6.21834574246609
H         2.11395581867600    1.34764539820789    6.57918760652058
H         3.44145674470510    2.13910863274592    4.68656973907389
H         2.69386010341753    1.83726729183552    2.37994398976702
