58
 energy: -106.312841041415 gnorm: 0.000533867024 xtb: 6.4.1 (afa7bdf)
Mn        0.42382258336749    0.79529091232983   -0.28892439673420
C        -2.54514371552980   11.58040322931129   -0.04430535541315
O        -2.03021747280463   10.25325002828286   -0.06427579740153
C        -0.74511483175867   10.11988595028611    0.26036813531440
O        -0.02230787560718   11.03388612067425    0.56415525679160
C        -0.29083300716840    8.69738606364437    0.21016142424241
C        -1.14507113435696    7.65680407467628   -0.14346932344981
C        -0.67414504882867    6.35942612432617   -0.17758100514760
C         0.65591795046603    6.10066371509374    0.14466591920560
N         1.10890704590051    4.77057783725263    0.09644392596532
C         2.38013188869715    4.30921373174375    0.06287110561602
C         2.25219869082298    2.93667407251933   -0.00076740270703
C         3.14498258506395    1.79585860532613   -0.03647557018230
C         4.53171892619403    1.89155124261239   -0.00148243263663
C         5.27897591850820    0.72684917466856    0.00421039290734
C         4.60984046461777   -0.48758048959175   -0.01601049543664
C         3.22441299576317   -0.49709387483966   -0.06080461903259
N         2.49284226405199    0.61436695442144   -0.07569700710441
N         0.91680886089573    2.66548850587395    0.00235764968691
N         0.25174819738859    3.76022514195118    0.05969414210700
C         1.51479012898326    7.13395847251745    0.50788103645491
C         1.03590941680403    8.42802479121710    0.53562669373549
H        -3.60537437983265   11.49755537686715   -0.26739598116869
H        -2.04091317359086   12.19171417694688   -0.79497692610288
H        -2.39041969072697   12.03126557580705    0.93764595142316
H        -2.17169313102853    7.87010237228295   -0.39322621368854
H        -1.31865782352562    5.53986925107800   -0.45334036129842
H         3.24245412019332    4.93980109406796    0.05864107745411
H         5.00316997421715    2.86098509552773    0.02005408661628
H         6.35645436379636    0.76626869021911    0.02663058540067
H         5.15045148503793   -1.41964338368816   -0.00441982917373
H         2.68842752135793   -1.43666372280261   -0.08868216146293
H         2.53998293705911    6.93901541931495    0.78036775929793
H         1.67716926005919    9.25096586232404    0.81195003247151
C        -1.31721898649922    1.17861674447874   -0.47523077703081
O        -2.42224506459417    1.42638568411424   -0.62599653349650
C         0.12280322263496   -0.95010696178201   -0.53946308032357
O        -0.09906402492051   -2.05800595698901   -0.72571078201098
C         0.64257284900932    0.98053351757061   -2.05413714703642
O         0.77403806429068    1.09101324240666   -3.18430884861120
C        -2.02219225483286   -0.88609109991599    4.35967775466636
N        -0.99676722874291   -0.23942684625238    3.58946001439223
C        -0.92091099279996   -0.15482946015923    2.25534714247937
N         0.13825208456102    0.50871444468184    1.82560845164883
C         0.81520046643643    0.89157431433436    2.96834447421418
C         0.09739759957197    0.42019916849385    4.09058815785293
C         0.51829384999185    0.64068494894340    5.39510376029865
C         1.68699672886651    1.34971788366313    5.56495975380956
C         2.41140650625233    1.82058029665318    4.46739459631104
C         1.99654810544505    1.60365220046408    3.17153144953202
H        -1.58246612638747   -1.65062936964523    5.00206755877835
H        -2.74031422909230   -1.35297405741997    3.68904193379697
H        -2.53914393327255   -0.15653184901831    4.98552580307733
H        -1.66566620478586   -0.59682311760112    1.61548530279789
H        -0.04611176452889    0.27139204665772    6.23595568926788
H         2.05364628376587    1.54509368365039    6.55992904078223
H         3.32423518852606    2.36892587139482    4.64243481884065
H         2.58461756656999    1.97664347886976    2.34932916944934
