68
 energy: -134.088091659306 gnorm: 0.007708032743 xtb: 6.4.1 (afa7bdf)
Mn        0.94106715793167    1.22075170651974   -0.64226541393655
C         5.03391092275684    8.45632990859467   -0.34423745627255
C         3.90706515642437    8.33072449148758    0.63625708151804
O         3.39619430988533    7.29022090746973    0.98363305251629
O         3.51200019665847    9.53737314586972    1.07067413468976
C         2.48716911597485    9.61429186045000    2.05955287402808
C         1.21816989875330    8.89096035588824    1.68742428385235
C         0.77880193797624    8.88058519388303    0.41806717623538
C         1.53225158767979    9.52227165028834   -0.72015432519093
O         2.19293580917441    8.88470128694751   -1.49524085968172
O         1.37689891155598   10.83222363112658   -0.73591435705011
N        -0.26416660932439    8.06191409860001    0.01579228616185
C        -0.52561804275967    7.45138469397211   -1.19279106182980
O        -0.38832725380272    7.78300362460886   -2.32331366123882
C        -1.07788654050969    6.19173382372814   -0.46813351577424
N        -0.12697948102441    5.12827007365690   -0.52624871475304
C         1.21532446393197    5.24455837121355   -0.42730444796646
C         1.66305905750928    3.94068388759927   -0.40879090627113
C         2.94699570725380    3.29379559397479   -0.26922124678899
C         4.13972347150748    3.98668969159844   -0.06799244126862
C         5.30917558407707    3.26627922523263    0.07568999563652
C         5.23114268679830    1.87724944276224    0.02280375251631
Br        6.78430262456907    0.81098413250038    0.21383243892597
C         3.99922582009853    1.25784657868889   -0.16481406346552
N         2.87328996916535    1.94683399013385   -0.30958235869135
N         0.56414829493693    3.13863455908219   -0.49719842024106
N        -0.49414652177787    3.85827298303525   -0.56236653010398
C        -0.92483216234595    7.04173031701796    0.81560372045513
S         0.11644526111428    6.41525880272557    2.16910577063685
C         0.51995055810007    8.10678555008376    2.75112187828908
H         5.64823287036761    9.31888054001492   -0.10547973227819
H         4.60243765094867    8.59541051110586   -1.33517850533974
H         5.62677444098699    7.54449938841332   -0.34986813809704
H         2.87582314199869    9.20597056736676    2.99899268449659
H         2.30682794777362   10.68713187103207    2.18418403759506
H         1.85935119161184   11.24207013569171   -1.47440699400945
H        -2.06418866928386    5.80675228661210   -0.72505714976861
H         1.75131209032487    6.16973719657730   -0.37552967366269
H         4.12796510933711    5.06495643575894   -0.00876749164504
H         6.25788306827294    3.75811688600325    0.22702552407553
H         3.93852556854924    0.17760104186530   -0.20091633778539
H        -1.87152523241887    7.39492961315125    1.23234068697652
H         1.15264951085245    7.96498889625607    3.62381758936000
H        -0.41868012851314    8.57230746769990    3.05830907797419
C        -0.78688256279342    0.79915708382949   -0.87856621014403
O        -1.88612713209095    0.52924281680002   -1.03089394587304
C         1.43692959508854   -0.49192467269880   -0.78021970441597
O         1.72685620550412   -1.59295817085169   -0.91093150499660
C         1.16792737801722    1.37280547536234   -2.41137332503094
O         1.31249139096270    1.45242599399270   -3.54130548923676
C        -0.69482449014699   -1.19357456174377    4.04629114391117
N        -0.09929809260426   -0.14781246564448    3.26169658266819
C         0.10240476314318   -0.14485530912427    1.93797603798235
N         0.66691386623893    0.96360723209268    1.48985026272583
C         0.85223015572974    1.75559118845531    2.60896529445760
C         0.36236225848032    1.05492533825684    3.73488814685534
C         0.39276576712199    1.58370876855498    5.01804571860319
C         0.92828320956708    2.84475465714610    5.16355992923310
C         1.42597775015747    3.54723113317491    4.06409063308548
C         1.40194569319279    3.02401282616301    2.79018036901700
H         0.00289590181138   -1.52896807097837    4.81531043995881
H        -0.94666502033125   -2.03334199692256    3.40231591876482
H        -1.60251417008941   -0.82905636692837    4.53073394051430
H        -0.17864093701146   -0.98130187430247    1.32077562186663
H         0.01169850513253    1.03060216976384    5.86161806864258
H         0.96839661845661    3.29741215218154    6.14147082520624
H         1.84163470213884    4.53152682632488    4.21221316778134
H         1.80441219119524    3.59943141112148    1.97467983573895
