62
 energy: -119.107673839447 gnorm: 0.000338601532 xtb: 6.4.1 (afa7bdf)
Mn        0.77225403089261    0.73083280220082    0.01824473447587
C         6.48820379842825    3.19539760537173    2.04878684241066
O         5.12823833713191    3.03577171696415    1.67909359279919
C         4.66986138674713    1.79827232679171    1.42449854117540
C         5.40114751822303    0.61603346047565    1.52541427709968
C         4.76714863577918   -0.58214411477479    1.24649337610472
C         3.43644295931027   -0.59066797040287    0.86107108821954
N         2.72308758684065    0.52665163353325    0.74618821964261
C         3.32167814006092    1.69738721679946    1.02757127542994
C         2.44376675362262    2.84061022388352    0.90438282773905
C         2.53440563949819    4.20535567623796    1.09522161537407
N         1.30058904185656    4.66698578678027    0.81009770964857
C         0.85772086437996    6.03764400810910    0.77287348509993
C         1.55330917204287    6.77535815477473   -0.34752446314897
C         1.42262446393081    6.31345900949875   -1.65216955972430
C         2.07361718891758    6.95470884868255   -2.68992741554328
C         2.85795050894760    8.06635034767786   -2.41684777598064
C         3.58670564672217    8.79144500648804   -3.51773546230014
F         4.89343804694699    8.93081554840032   -3.23202623938731
F         3.51464484803514    8.16421561296917   -4.69556001868386
F         3.10522651288069   10.03015300130257   -3.70284566456594
C         2.98614507516772    8.54251963734137   -1.11876084201620
C         2.33713759775409    7.89059543512029   -0.08604539119964
N         0.49827726759320    3.68107873496336    0.46377698277532
N         1.16329370537262    2.58281198056383    0.51817773867439
H         7.15660581861200    2.84469864366240    1.25927658569110
H         6.70890445822962    2.67447836804548    2.98360877543615
H         6.62720281447403    4.26512745325007    2.18985148530070
H         6.43893085326907    0.62456816074385    1.81506589033554
H         5.30691506999953   -1.51175109898853    1.32286753232814
H         2.93691585133607   -1.52227277479394    0.63616571814644
H         3.34857256260204    4.83104300699568    1.38938418102966
H        -0.22236364473420    6.01161734973071    0.60554365920857
H         1.06437916971728    6.51343739311976    1.73490500810316
H         0.80535908964679    5.45132079973623   -1.85918788252102
H         1.97362315883385    6.59656637539209   -3.70242556915711
H         3.59367492511780    9.41219616089453   -0.92206790603537
H         2.43675018923767    8.25997301023285    0.92341065601295
C        -0.85120716388821    1.13731429561863   -0.62118953335688
O        -1.86911154022754    1.40136623841991   -1.06937144836487
C         0.54416659936961   -1.00453048720655   -0.35181436400218
O         0.37321010751488   -2.10641769966794   -0.61184509601931
C         1.44769856701213    0.97522572133196   -1.61804877780151
O         1.87091623089804    1.12434270177739   -2.66978807958985
C        -2.88466759109561   -0.95995434606913    3.79148357384354
N        -1.66013207069055   -0.35587543581691    3.34605515597234
C        -1.23964206669335   -0.21744932806046    2.08205041546099
N        -0.06773980953167    0.38368256819287    1.97597767424304
C         0.31655334809138    0.66166439986630    3.27425571116304
C        -0.69176154777649    0.19460874642011    4.14745001622538
C        -0.60437681240845    0.32081387057650    5.52728582462743
C         0.52452688454300    0.92863057340900    6.03075435895034
C         1.53179170295572    1.39497145918064    5.18290576122781
C         1.44802249613016    1.27275588174070    3.81307859045414
H        -2.66951572027506   -1.79108078639523    4.46484798125173
H        -3.44050163095339   -1.33070077141545    2.93309457762812
H        -3.49428587474279   -0.22699683485859    4.32265050410159
H        -1.82111684745591   -0.57384599448203    1.24895418800448
H        -1.38583805897667   -0.04328131713534    6.17437585313555
H         0.63723070647737    1.04702370408036    7.09657244755555
H         2.40174960302618    1.86388574296957    5.61657177747974
H         2.24595644534242    1.64025955972086    3.18967427970042
