55
 energy: -96.024691697991 gnorm: 0.000338810990 xtb: 6.4.1 (afa7bdf)
Mn        0.48321856944584    0.91502819547057   -0.13001342079481
C         2.14546733551183    8.90423871009011   -1.63880773821143
C         1.34240237375827    7.86523131648207   -2.08081683091540
C         0.79955234862249    6.97469058283408   -1.17238370641679
C         1.05971782852221    7.11752768820210    0.18568126432164
C         0.47368362243107    6.12830039537997    1.16425042433924
N         0.97998441298990    4.80350285132016    0.90095613325610
C         2.26764415307525    4.41877782696614    0.81527378796682
C         2.20677118066576    3.07307869463007    0.50774152882497
C         3.15157202631938    1.99346122935607    0.30240499803677
C         4.53235060515705    2.14974905805616    0.34883321233474
C         5.33433680528635    1.03505147714227    0.17740437816958
C         4.72351182843173   -0.19362399437598   -0.02329052798458
C         3.33984806383249   -0.26341393859845   -0.06621059491876
N         2.55574042548521    0.80114171679233    0.08662951904830
N         0.88621861468063    2.74971860215187    0.43174176410525
N         0.17151946653587    3.79205751880118    0.66559390772292
C         1.86981018874726    8.15531815078182    0.62363973478661
C         2.40650631928590    9.04976464224900   -0.28715800404218
H         2.56392783754916    9.60188978098211   -2.34735086235262
H         1.13350374985402    7.75132244542365   -3.13322694577479
H         0.16478532718866    6.16964868343082   -1.51552633123946
H         0.72346794672251    6.41095788001644    2.19138420283838
H        -0.61312125616453    6.06792700165733    1.06465175492766
H         3.08474813946029    5.09310976258792    0.96013247909843
H         4.95612870878882    3.12751540843586    0.51326437899068
H         6.40890236542708    1.12303800849622    0.20142973981568
H         5.30761918705571   -1.08981943876335   -0.15294578223133
H         2.84924935585820   -1.21357370348311   -0.23149359500328
H         2.07229423675575    8.27395431394328    1.67855708378928
H         3.02808061690900    9.86003193305033    0.06134917879222
C        -1.26854412516085    1.24518750514008   -0.31622524314625
O        -2.38036781756414    1.45828730988432   -0.47107350028900
C         0.26214989846714   -0.79694797553679   -0.59743290889493
O         0.08714992085125   -1.88171566656106   -0.92035398899460
C         0.72433944593739    1.33011969466949   -1.85162042836419
O         0.87208915343209    1.58486080788736   -2.95658330608525
C        -2.06192790985482   -1.29500757607396    4.23821873598592
N        -1.01754197667179   -0.56893319053755    3.57112490913329
C        -0.90148817474612   -0.34554088010342    2.25576454032161
N         0.16566429210094    0.36259712133269    1.93051266006297
C         0.80666138540773    0.62358582116798    3.12686327772427
C         0.05691806855940    0.03764466491515    4.17168819829257
C         0.43687308522282    0.12326448816130    5.50431427651396
C         1.59783248463835    0.81066017134660    5.78207592231439
C         2.35605377001668    1.38890864967267    4.76135043106284
C         1.98179313315252    1.30649820900015    3.43785808160452
H        -1.63577734256702   -2.11241647592663    4.82175734233522
H        -2.74906848005068   -1.70334301888634    3.50048208656749
H        -2.61097636201783   -0.63307941121370    4.91024833136020
H        -1.62292175408211   -0.72241521936078    1.55098286316361
H        -0.15157440191366   -0.33047187758608    6.28527038569935
H         1.93287582563172    0.90298035237401    6.80281042474860
H         3.26380785418809    1.91251074303208    5.01930154665626
H         2.59717764284036    1.75540695370827    2.67579923095448
