61
 energy: -109.486745485328 gnorm: 0.000646216187 xtb: 6.4.1 (afa7bdf)
Mn        0.53661647408191    0.81461205585195   -0.28315315070078
C        -0.49139402317053   12.33630129821670    0.10593214190396
O         0.00132793076078   11.00094067392046    0.13271194430843
C        -0.92146529385212   10.03900424314990    0.10442851237674
O        -2.10782949381804   10.23903145358188    0.06237134292775
C        -0.32018451330747    8.67204715087520    0.12534405542951
C        -1.17757599941635    7.57955242348146    0.01734810274105
C        -0.67396313870371    6.29599498425915    0.01991565688632
C         0.70071429734491    6.09992778506307    0.13597094512527
N         1.18767614730847    4.78105516658403    0.11520298361529
C         2.46704645955286    4.34141389419989    0.08159630720677
C         2.36467503505479    2.96607660362993    0.02804433779902
C         3.29408794249385    1.85437863585599   -0.00438529886564
C         4.67112242179345    2.02940449630060    0.00245473172812
C         5.47819035003335    0.90445570442055    0.01935423944507
C         4.87315221624772   -0.33669654694758    0.05674901537001
C         3.48118713003469   -0.44326357242603    0.04896650399221
C         2.84682743092429   -1.79079546787717    0.10168862653655
N         2.70194761360535    0.63974667306183   -0.00049477475351
N         1.03716902517279    2.67061830221411    0.03751324740075
N         0.35113232103374    3.75262300822533    0.09028121793142
C         1.56380978027129    7.18532478190930    0.25614024013357
C         1.05048752292626    8.46819430051190    0.24759940866627
H        -1.10097446696693   12.49602573174004   -0.78518113176415
H         0.38221951117874   12.98223982108801    0.09464584573038
H        -1.10297719417108   12.53063539556538    0.98881122207927
H        -2.23740693789209    7.76085743690513   -0.07334251262243
H        -1.32368744395236    5.44062596360261   -0.07236421567221
H         3.31921813002330    4.98505017562141    0.08289016252815
H         5.08875958622995    3.02262143136550   -0.00695268346233
H         6.55253608304937    0.99738842618993    0.01464760213080
H         5.46875949650117   -1.23452336830093    0.08925858237731
H         2.00443958467305   -1.78816179223837    0.79247411621999
H         3.56447708357150   -2.54236374108243    0.41929681905167
H         2.47949666567985   -2.06763273703870   -0.88716209331655
H         2.62813598542389    7.04515846390576    0.35801123954831
H         1.70992198020191    9.31649923273149    0.33507856505041
C        -1.17272096938102    1.25977498335053   -0.55671955618387
O        -2.26157914288897    1.53735014190969   -0.76381759179360
C         0.07232385774862   -0.88300430149240   -0.59643124227417
O        -0.35762951240543   -1.91521262259452   -0.85382112245555
C         0.86284357926057    0.98718311964321   -2.03135819918340
O         1.05870756163271    1.08291903293082   -3.15448373875743
C        -2.12608772166661   -0.73220036926577    4.29368386773787
N        -1.04645503034545   -0.14829854308034    3.54776106869947
C        -0.94576437756667   -0.05075123748122    2.21550644517337
N         0.16786426744347    0.53339784526294    1.80989143384524
C         0.85568717706022    0.84765513074063    2.96702382532155
C         0.08964440120928    0.41531710052520    4.07285232815793
C         0.51312967807392    0.58076065324422    5.38474910244222
C         1.73111553949370    1.19496862316086    5.57733736618105
C         2.50079857487474    1.62946191910947    4.49552778884228
C         2.08448162034973    1.46646708120358    3.19231798589691
H        -1.76750698413747   -1.58856788966245    4.86731376365799
H        -2.90393290952396   -1.06231176170672    3.60862683560445
H        -2.54506804907910    0.00167457360284    4.98372206978769
H        -1.71424059508416   -0.42419246903804    1.56027664397084
H        -0.08553604882569    0.24151489049517    6.21452510440153
H         2.10131312173793    1.34372940855092    6.57913364865799
H         3.45012424336284    2.10475675597068    4.68902169835848
H         2.70469901902794    1.80878844619274    2.38049661890179
