60
 energy: -111.556286564152 gnorm: 0.000370835412 xtb: 6.4.1 (afa7bdf)
Mn        0.69940560422435    0.67311991728405   -0.18839680982851
C        -3.04582736621319    6.69686978705580   -1.73694886302076
O        -2.17240756997593    7.74818524450469   -1.38362773947222
C        -0.95536988504471    7.45405423899601   -0.90950413940432
C        -0.44568761668695    6.17522422359070   -0.72040099833332
C         0.84167835022982    5.99777809110897   -0.21589497426258
N         1.29677982670839    4.67876855418408   -0.04762826456283
C         2.54846844715734    4.23955890413992    0.21857938842113
C         2.43402266188958    2.86486154230036    0.26304921810007
C         3.30915636900398    1.74050154576279    0.51358760339309
N         2.68959667455168    0.55014170165939    0.43450694985458
C         3.39515640961623   -0.54849377268387    0.69097458092149
C         4.73763781052704   -0.50315257346617    1.02847974435503
C         5.39280640548434    0.71384626309300    1.10267037838144
C         4.67190346794858    1.87810533812377    0.84499221237575
O         5.15409968379666    3.13199469909105    0.89262110331645
C         6.52685037251213    3.32137178994220    1.19328630373857
N         1.12577219814391    2.57022627062814    0.02537874357461
N         0.46325549618295    3.65419624046045   -0.15708521354121
C         1.64529520564746    7.07969496788709    0.11170193971387
C         1.14951816900591    8.35991606522869   -0.07590492287743
C        -0.12155051322752    8.53959351569980   -0.57553276552676
F        -0.58580734558403    9.78051201993757   -0.74865658233316
H        -3.95498735287807    7.18179018435049   -2.08606441931046
H        -3.27756535976374    6.06527247692635   -0.87473845960448
H        -2.62800542699595    6.08502648102898   -2.54115376090378
H        -1.02739448853635    5.30052549324623   -0.95856648601543
H         3.40180275599964    4.86965273644397    0.33427926436534
H         2.87852704228809   -1.49547145332563    0.62333506641751
H         5.26963278526531   -1.41869868901912    1.22868570546368
H         6.43903627450927    0.74979284237996    1.35777284712591
H         7.16533230893892    2.83524656863040    0.45214184726547
H         6.76830780702743    2.95243770614374    2.19317042737291
H         6.68719688739812    4.39679379051987    1.15698829296779
H         2.63501301940290    6.94892458871441    0.51501951224138
H         1.74385121498318    9.22593251378620    0.16568614771275
C        -0.97846162002725    1.01525592045988   -0.71191712407133
O        -2.03884663182283    1.24738357477289   -1.07166043540551
C         0.46315802178429   -1.09144994771849   -0.35362499707911
O         0.29513590312498   -2.21555046961761   -0.49686426262304
C         1.23861751326114    0.71725011144473   -1.89228512789185
O         1.57279088698080    0.73163420704718   -2.98557669729637
C        -2.48323146817387   -0.78632547090907    4.07621861911776
N        -1.36851745687802   -0.13298894323870    3.44906149951298
C        -1.04900665425347   -0.15016375219250    2.14843473315340
N         0.03458633026560    0.54847953856346    1.85955691122044
C         0.46369286527437    1.06889638668400    3.06596372796904
C        -0.42471759539046    0.63976660224728    4.07782673826330
C        -0.26849577073353    0.99486732825731    5.41089268694379
C         0.80650726272171    1.79724328559859    5.72380399494388
C         1.69596739157885    2.22905483922639    4.73716655855726
C         1.54412783056056    1.87882685559189    3.41335477662793
H        -2.13101151912517   -1.45583756656123    4.86241070706268
H        -3.03033746982569   -1.36376528043316    3.33415744514802
H        -3.15296404726361   -0.04691598305613    4.51892898607149
H        -1.63724356334331   -0.69151034834804    1.42706338436169
H        -0.95957048931953    0.65680703437788    6.16598231583052
H         0.96809705389005    2.09897905106598    6.74630671899600
H         2.52645959791596    2.85606875304708    5.02320933312108
H         2.25109530532918    2.22811945936235    2.67961462940683
