55
 energy: -97.130344710645 gnorm: 0.000740835131 xtb: 6.4.1 (afa7bdf)
Mn        0.38583114943702    0.59115323611219   -0.43909042484192
C         2.12771031458336    9.46789276336177    0.39525112094632
C         1.66299700024960    8.06848642198736    0.68981875083804
O         2.40334964227018    7.11004025223818    0.79096310770848
N         0.31805811480254    7.94456325799833    0.83561511810990
C        -0.31429288688173    6.70265869357471    1.20685026707523
C        -0.70082109084829    5.83043861819494   -0.01321132215435
N         0.07547268019948    4.62247851502371   -0.09271833792699
C         1.41546660130861    4.48971830805002   -0.11720495419255
C         1.62198964459848    3.12645421009507   -0.19447512903467
C         2.77019480087335    2.24376643723967   -0.21622141416366
C         4.08691733474902    2.69017200345485   -0.18099715580518
C         5.10412788445436    1.75248168040320   -0.16395190079307
C         4.76429130047285    0.40762191976776   -0.17421758365119
C         3.42697370003471    0.04631360961916   -0.21506050588041
N         2.43737637777640    0.93630085738556   -0.23862596124204
N         0.39263016568995    2.53958025178244   -0.20939528662542
N        -0.51820126230710    3.44238337285778   -0.14675383674105
H         1.60309315159470    9.87493582959747   -0.46584659394301
H         3.19564108632774    9.46001974492110    0.19854097825004
H         1.93260473473401   10.10678094257807    1.25427174025249
H        -0.26337440525624    8.75952950647823    0.72924691602941
H         0.39025199433163    6.14848649675167    1.83547676363062
H        -1.20406392234466    6.92744943324581    1.79486931244754
H        -0.55337782454608    6.40888501907521   -0.93054095651954
H        -1.74374180088097    5.51364862430648    0.03785656512963
H         2.08219727158120    5.32755180625962   -0.04107777294416
H         4.29205980523883    3.74865928964312   -0.16527647963533
H         6.13671783599577    2.06289701313265   -0.14114383839370
H         5.52327372104275   -0.35719771593366   -0.15598658098177
H         3.14663253413579   -0.99869708800459   -0.23086024914331
C        -1.39299094154833    0.51584725043492   -0.63418484277052
O        -2.52394744721473    0.46534835785964   -0.79271820175892
C         0.52759223346579   -1.18257321920362   -0.60683222962537
O         0.57955018466354   -2.31939718059595   -0.73904472201757
C         0.56048216524725    0.74295109695889   -2.21159823157802
O         0.66353195101176    0.81929870289753   -3.34786289965959
C        -1.63351351350381   -1.39137066306975    4.29825419430741
N        -0.78306081750074   -0.55746685143825    3.49589038472014
C        -0.70287458397094   -0.53264218411078    2.15899251723226
N         0.16913096574538    0.34528360378196    1.69650266287355
C         0.70951491885624    0.94628691444518    2.81817121700367
C         0.10602721916979    0.37785606121809    3.96270689802477
C         0.43302476436184    0.76947798730465    5.25390624349049
C         1.38834589405913    1.75293861875194    5.38762426287747
C         1.99899144805944    2.32268995223415    4.26808922096722
C         1.67788502480280    1.93552444299304    2.98533115391561
H        -1.03212987383173   -1.99739647761800    4.97757011026289
H        -2.21286362554187   -2.04755816394316    3.65272690024478
H        -2.31558258738358   -0.77602014413533    4.88736863529777
H        -1.30375543491362   -1.18000469395606    1.54326604304387
H        -0.04001290589808    0.32093316160663    6.11246322166021
H         1.67505958104726    2.08880993199547    6.37137993525964
H         2.74686853619603    3.08697191019481    4.41344542850468
H         2.17772919117562    2.39133427422836    2.14727774199853
