72
 energy: -137.752538028951 gnorm: 0.000605036525 xtb: 6.4.1 (afa7bdf)
Mn        1.98384576724402    2.18154964521920   -0.25718036911976
C         5.81281005992223    2.28664398882864    5.07323905053623
O         4.85269812360301    2.60043595418679    4.07807121891213
C         4.65335771663924    1.72534810596370    3.07779225372555
C         5.28387309455477    0.49189502850690    2.92921820955442
C         4.96833531596110   -0.28602213094542    1.82815031605120
C         4.03080375120213    0.15765886097845    0.91086123091137
N         3.40614103931931    1.32640409129397    1.04073452766157
C         3.72132505660791    2.10237883926067    2.09082586480339
C         3.03333984491111    3.37306390468430    2.08846299706449
C         2.88791865456139    4.45145315350445    2.94007608679988
N         2.03886918032443    5.27360181149118    2.29078356780110
C         1.42341169706830    6.50098019102070    2.68447697734447
C        -0.04927359955967    6.45729660387939    2.16641580548104
O        -1.00173654294432    5.80271405022267    2.47239635733259
N         0.22100097026588    7.39399788452931    1.22457701911834
C        -0.31956614819295    7.77503765273838    0.00436938440282
C        -1.75492477775819    7.39614567450878   -0.24244261558169
O        -2.62629936805537    8.17950634362316   -0.48521843496862
O        -1.92614158777096    6.08001614366616   -0.16934849458786
C         0.42884905893097    8.39085106494528   -0.92516656627367
C        -0.18357869483625    8.75704562366369   -2.25761553171218
O        -0.49008458283763    7.59615889511449   -3.02914283098198
C         0.54329942847906    6.99200918118403   -3.64741275674153
C         0.07429070683956    5.84303921440788   -4.48539496658769
O         1.68028697455559    7.36253588765527   -3.52627105640502
C         1.89435722367733    8.65288663949517   -0.76817141695323
S         2.75260252976804    7.42840610643264    0.27462542983908
C         1.58583742714802    7.63970232159201    1.65444075124807
N         1.68431282959525    4.75781595853099    1.12387114126383
N         2.27136260738843    3.63014565571912    0.99015308095184
H         5.81513646176365    3.13546719032176    5.75374074158491
H         0.67025198907601   -2.65725465235199    2.62427701105815
H         6.80839790411707    2.16832380745665    4.63936785728002
H         6.01223086037923    0.14630506145742    3.64414930434692
H         5.45263213354390   -1.23738181786054    1.68009780698809
H         3.78812730152028   -0.43803694861269    0.04181990887044
H         3.30646317151133    4.66075570976635    3.90018064694322
H         1.62310879356147    6.72708916824346    3.73018746969701
H        -2.85349790311402    5.85036707331065   -0.34749572723765
H         0.50554278190643    9.39358789682444   -2.82140350310703
H        -1.13812001069698    9.26672712112335   -2.11620046805586
H        -0.59799484498063    5.21438009870709   -3.90900208592684
H         0.92922783802102    5.27024946028112   -4.83068465703497
H        -0.47264285367351    6.23189594159259   -5.34188208315471
H         2.38479390696290    8.56791667922756   -1.73941599678146
H         2.08650505250260    9.64446266557184   -0.35131313416700
H         1.71921247005115    8.63147263485351    2.09427541280445
C         0.83585878547297    3.11184666437980   -1.26668102793307
O         0.12396567387352    3.72304032451924   -1.92072155931646
C         1.66777769384440    0.69217436475159   -1.20419757797821
O         1.45721994568000   -0.23948293468759   -1.83464332431809
C         3.31077835720550    2.65337713243246   -1.36472565694758
O         4.14400124486115    2.95592417730808   -2.08432842553162
C        -2.44313949850869    2.79625152069692    2.99730281291437
N        -1.34521512295783    2.09092626368233    2.39558387424963
C        -0.49179138691349    2.57956147946645    1.48543160027032
N         0.42646220779367    1.70909720873356    1.10817393210374
C         0.14665020977475    0.55186497661876    1.80525217354790
C        -0.97552251354109    0.78789455390454    2.62853957388308
C        -1.50086122089666   -0.19679218889341    3.45517952659779
C        -0.87888508496112   -1.42655188098553    3.43650881800084
C         0.22604385237829   -1.67415595467270    2.61640677992777
C         0.75242673530638   -0.70218224863794    1.79420485835104
H        -3.39147679633138    2.45125456449526    2.58092378772307
H        -2.32955200549189    3.86267380012295    2.80973054515723
H        -2.44883976275078    2.61945849794947    4.07292915171426
H        -0.57652583318801    3.58782733052288    1.11711509752697
H        -2.36282393765635   -0.01017084365086    4.07530892230398
H        -1.25666882420187   -2.22133077621985    4.06006026684092
H         5.53499882610200    1.38319612768125    5.62153739574565
H         1.59200064594981   -0.90740159581799    1.14906072058519
