52
 energy: -100.008810409703 gnorm: 0.000337274842 xtb: 6.4.1 (afa7bdf)
Mn        0.46222106337357    0.74269320710107   -0.27831923337720
Br       -1.16148386325522   10.36986479266804    0.20688195122205
C        -0.46118827374719    8.60984284982743    0.17189882798616
C        -1.30163093979651    7.53909075373044   -0.10766456383026
C        -0.78858228731978    6.25902611248148   -0.13259115059932
C         0.56523928402557    6.04932583926504    0.12324250781816
N         1.05515285532852    4.73358209197665    0.08710076837645
C         2.33716768435660    4.30172983105745    0.06657475092696
C         2.24161544860516    2.92515222478744    0.01163582816497
C         3.15802980023452    1.80582184331011   -0.00663407991585
C         4.54467483771680    1.92583663175968    0.03742366340288
C         5.31814210322956    0.78225673572319    0.06995404846217
C         4.66604905227329   -0.44665338084981    0.06532707036359
Br        5.64300521689847   -2.06590722024769    0.13946595253571
C         3.27630913521633   -0.48853113117050    0.00391140174013
N         2.53098599011359    0.60847876402978   -0.03683725999897
N         0.91261655610480    2.62295132511679    0.00619393840251
N         0.22217078051324    3.70237839354788    0.05126563122860
C         1.40318603153349    7.12338323121361    0.40910937865250
C         0.88776649724726    8.40429082340778    0.43099855692117
H        -2.34750304231887    7.70995106612584   -0.30681834016061
H        -1.42251289739872    5.41475898705295   -0.35115261122893
H         3.18581299027904    4.95038414951401    0.06825105477158
H         5.00121412420096    2.90248457101793    0.04645003081356
H         6.39472584538903    0.83505022097723    0.10175927810193
H         2.76827703180160   -1.44371213680368   -0.01309061966867
H         2.44912082057780    6.97675767400238    0.62591410205186
H         1.52900392287272    9.24292320151679    0.65105315131330
C        -1.28219438423799    1.09721590977463   -0.49669686066383
O        -2.38511555179513    1.33525125708976   -0.67310240814772
C         0.20229759959878   -1.01211618877443   -0.52298211022627
O         0.01033211019610   -2.12488021557626   -0.70618489367091
C         0.69746468022890    0.91622957108220   -2.04362014414643
O         0.83573033506485    1.01516552035885   -3.17335744462277
C        -1.99642630312935   -0.99359981418131    4.34399919768341
N        -0.97927943051119   -0.32411749007279    3.58217108274060
C        -0.90603804583863   -0.21835616477827    2.24987373820614
N         0.15037248816295    0.45653440970608    1.82912146732954
C         0.82696372804577    0.82448303008359    2.97695206353351
C         0.11399373084893    0.33006855671859    4.09234728836339
C         0.53847801922392    0.52886727925391    5.39924368388764
C         1.70405182885462    1.24077462805003    5.57827373872266
C         2.42134414644398    1.73778770035131    4.48756376129852
C         2.00316252356912    1.54238806173501    3.18939111894398
H        -1.56049688234820   -1.81707560608899    4.91223074198719
H        -2.75515242427502   -1.38708897939953    3.67114165541524
H        -2.46306325757054   -0.29534513168729    5.04039007560162
H        -1.65043571752628   -0.65202649187966    1.60391064370288
H        -0.02013608618987    0.14092530462476    6.23550209241456
H         2.07337634498327    1.41886245338389    6.57545948351546
H         3.33065297389021    2.28953125926171    4.66992671769151
H         2.58340180624748    1.93795368875673    2.37196927596721
