59
 energy: -99.982331399332 gnorm: 0.000783479628 xtb: 6.4.1 (afa7bdf)
Mn        0.77211021773106    0.70832059044218   -0.04346796163666
C         1.80039933877693    7.66572896837092   -3.43347907723412
C         1.01084897138691    6.62635352207955   -3.24375314153664
C         0.61171575743577    6.02193488396956   -1.93006841580133
C         1.24147383541540    6.68799247160438   -0.70973515228761
C         0.79603967070429    6.02486721366283    0.59744485431983
N         1.25837135479710    4.66476168636607    0.66725860221122
C         2.50171752282892    4.22463633329210    0.94061704374744
C         2.42587519767433    2.85375636370643    0.78675661415549
C         3.31673819185846    1.72309450935819    0.93028027823813
N         2.73202105918336    0.54108245999866    0.66908813995186
C         3.45667377179947   -0.56651601055333    0.80733691304429
C         4.78414675072107   -0.53733347470593    1.20145585043626
C         5.40311477662096    0.67251667213974    1.46455798987220
C         4.66094725768416    1.84456095498180    1.33507718554092
O         5.10508285695065    3.09171672814374    1.57031957186939
C         6.45425408381994    3.26970513698028    1.96714824816677
N         1.14190195361465    2.57133232907417    0.43139385379025
N         0.46233436331507    3.66031620213175    0.36372407993800
H         2.26021373113062    8.21364678634893   -2.62914728013779
H         2.02014580282137    8.02139427341432   -4.42472373334795
H         0.57729427053263    6.12214055956166   -4.09737892231808
H        -0.47824603740231    6.07284827526024   -1.84793303011080
H         0.87210079238725    4.95816396733524   -1.95653390230720
H         0.94195173387057    7.73527342510534   -0.67240390050632
H         2.33001261693781    6.64642818426382   -0.78595796884039
H        -0.29386145164434    5.99255021334843    0.65136492906622
H         1.18917209420060    6.57346463665920    1.45671583437329
H         3.31392158569734    4.86392140327234    1.21028520108639
H         2.96821391426785   -1.50693458637217    0.59483591992922
H         5.33315800757691   -1.45957241195875    1.29844693545918
H         6.43781153812982    0.69692877757586    1.76425932156121
H         7.14399159014013    2.90843636282852    1.20108667343790
H         6.58196673909318    4.34317673878830    2.08978842366311
H         6.65712966328999    2.76965343393866    2.91726645715996
C        -0.87048230147389    1.08576575693677   -0.65143505951901
O        -1.90186075835778    1.33309273488230   -1.07766712329832
C         0.57327772506023   -1.02943020900209   -0.41467670899730
O         0.42424334790788   -2.13165838175838   -0.68776977501851
C         1.41683106112374    0.95708772740867   -1.69073087057325
O         1.82106710995751    1.10922233261916   -2.74990159819777
C        -2.76375203403081   -1.06973107101892    3.80359003143515
N        -1.57597669253910   -0.41474069479274    3.33138726957398
C        -1.15984018377721   -0.30843420037365    2.06257207441334
N        -0.02758222980856    0.35913549698633    1.93020022095047
C         0.33319856555757    0.72037577065587    3.21448814291823
C        -0.64832785539806    0.23360015682051    4.10715351770557
C        -0.57703450036123    0.43274922374878    5.47923470390256
C         0.50841441266872    1.13456162559997    5.95498618952082
C         1.49074864547759    1.61876608606297    5.08808892073957
C         1.42316973762937    1.42342604252128    3.72603187877916
H        -2.50354011265930   -1.82823301085581    4.54277471063476
H        -3.27346201069030   -1.54473632850265    2.96870866137569
H        -3.43535288231640   -0.34477184252579    4.26650877773043
H        -1.71424946085380   -0.73814162491244    1.24583899816079
H        -1.33845648354861    0.05353268132574    6.14140502351415
H         0.60637794898856    1.31365359999877    7.01370117952735
H         2.32796707255888    2.16057084684537    5.50048878612290
H         2.20221035431278    1.80567970055348    3.08792261407411
