72
 energy: -119.214505444754 gnorm: 0.000343856985 xtb: 6.4.1 (afa7bdf)
Mn        0.51343160094622    0.83168666369019   -0.49374625868530
C         2.80745692997967   11.75993508400157   -0.23259862198114
C         3.00367069527972   10.24627334054979   -0.17262907618543
C         4.06260554170062    9.88101867661902    0.86553843817944
C         3.36457795789683    9.69545408594497   -1.55081939552059
O         1.70249762626524    9.74358001836889    0.24227243563966
C         1.48605272532446    8.44430120944591    0.40470932816312
O         2.28307548939338    7.53724415306541    0.24336400480177
N         0.20220055732028    8.21312285639545    0.77275721934784
C        -0.77682509063054    9.25742739725114    1.02846212490813
C        -2.04331063139402    8.48389978074116    1.38814895642497
C        -1.49150926167700    7.20102365127853    2.00879760485913
C        -0.27569752778195    6.89570525143103    1.13156453299199
C        -0.63890543518059    6.06728501525208   -0.13325109492195
N         0.13521660286726    4.86368395281572   -0.22955491645847
C         1.47370436391174    4.75827271635778   -0.32892214251052
C         1.70585454826653    3.39747217873988   -0.37368697640389
C         2.86913311230621    2.53736515410598   -0.43652768714029
C         4.17598722862625    3.01062712576648   -0.48635705920709
C         5.21270660089075    2.09493107623407   -0.50583587663371
C         4.90219059174349    0.74358624038603   -0.46426861532387
C         3.57290327624156    0.35462007925556   -0.42009405685345
N         2.56437323548897    1.22342973432980   -0.40929878585236
N         0.49050793607814    2.78572601392222   -0.29482415496643
N        -0.43513807476804    3.67231731664539   -0.20705026546007
H         2.03162509193109   12.00952754140542   -0.95136048678625
H         3.73352040749985   12.24115880894800   -0.53059443254361
H         2.50988492630229   12.13748493950667    0.74188783353157
H         4.19136300402921    8.80296839721482    0.91455569977517
H         3.76651791581238   10.24601061083638    1.84677232870490
H         5.01022455895727   10.33620996481353    0.59360919692872
H         3.50333169096355    8.61859918290977   -1.50577232862217
H         2.57455520895285    9.92152245034570   -2.26396311904148
H         4.28725717536163   10.15326816253430   -1.89442970151379
H        -0.89627577756062    9.89087209315908    0.14783986584999
H        -0.43930347303574    9.88681273982782    1.85811253586082
H        -2.68057877595367    9.03806849173607    2.07196848366504
H        -2.61549703802305    8.25274114100209    0.48966653971755
H        -1.16264731269550    7.39539565987106    3.02992549901801
H        -2.21220742445705    6.38700801541531    2.02568087351881
H         0.50950212160381    6.36158790846395    1.67949677327682
H        -0.45404603292749    6.67649263804970   -1.02229989151648
H        -1.68666003119323    5.76272352878963   -0.12130936993646
H         2.11067773022355    5.62242998573565   -0.33329545168781
H         4.35803604038947    4.07315584234241   -0.50948912884082
H         6.23794692936851    2.42662166102693   -0.55098888802056
H         5.67727841198732   -0.00505277905261   -0.47186914105908
H         3.31510956678480   -0.69601773344011   -0.39562963100998
C        -1.27189556785288    0.70820133916526   -0.57133560442309
O        -2.40900553505599    0.62050451075000   -0.64935032545176
C         0.69468603005056   -0.93688966266102   -0.66810993985841
O         0.77957496224218   -2.07079082978573   -0.81156843818405
C         0.57339034377508    0.97472386700665   -2.27427118744016
O         0.60315132365713    1.04840442096818   -3.41503983852513
C        -1.11236856814928   -1.20865609189095    4.36875845509096
N        -0.37458329025915   -0.32401721880651    3.51106563123285
C        -0.34321144886170   -0.33500097225614    2.17175745057113
N         0.42778235677809    0.60317739919825    1.65185236691247
C         0.94953091703709    1.28583658226572    2.73454191095172
C         0.43950559707892    0.70343292531403    3.91692959158008
C         0.77109288048221    1.16707135300040    5.18284934200466
C         1.63551138290940    2.23747225500145    5.25164173408773
C         2.15671691273874    2.81977322529370    4.09390475832439
C         1.83142866681219    2.36097693755933    2.83608049148458
H        -0.43100001081353   -1.74016237758850    5.03504151429944
H        -1.65632576921949   -1.93098485511453    3.76419365158596
H        -1.82226323807095   -0.64118244563448    4.97298916082765
H        -0.90372623023725   -1.05302437109027    1.59766074927793
H         0.36948080609309    0.70731628221175    6.07137490438404
H         1.92086560297210    2.63245181502789    6.21361258573848
H         2.83750945158797    3.65170912414647    4.18922624586278
H         2.26300591080225    2.82739876392782    1.96636206898102
