58
 energy: -99.192886709668 gnorm: 0.000793941351 xtb: 6.4.1 (afa7bdf)
Mn        0.50932402476275    0.85995920513194   -0.24060979451575
C         0.62723909959398    6.45343217074166    2.29270631356715
C         0.53363676154101    6.13548452604493    0.80319343446543
C         1.27974148319581    7.07778689030704   -0.12064365331373
C         1.03651162713070    6.97167181128434   -1.48710824082023
C         1.70418610430926    7.78351074366551   -2.38487356595852
C         2.62348046898508    8.71294607297849   -1.92618957104723
C         2.87000984781778    8.82297694990722   -0.56932869425497
C         2.20559761635577    8.00678606950592    0.33193215534833
N         1.03363958312679    4.79118301044201    0.57374632747746
C         2.31751396537984    4.39124751043933    0.52750337573996
C         2.24729765730381    3.03126078743085    0.29439581215211
C         3.18308767991728    1.93219832839409    0.16674334794663
C         4.56420820622273    2.07453646672206    0.24157605912820
C         5.35555719240226    0.94288595031662    0.15280121219189
C         4.73409273855864   -0.28741469585772    0.00014188901886
C         3.35131361628376   -0.34314520892691   -0.07555017180242
N         2.57738896043387    0.73695262451193    0.00181712353362
N         0.92473318716581    2.71616652566061    0.22124351089552
N         0.21806432815124    3.77672299940889    0.38870135731324
H         0.26334083013777    7.46035497963610    2.47378398694330
H         1.65107973106764    6.37558115126118    2.65162554639131
H         0.00958660552775    5.75772007748092    2.85694882819636
H        -0.52221288255862    6.10212075055177    0.51087871208952
H         0.31342811847499    6.25231398377805   -1.84610038739310
H         1.50258323885800    7.69424872632242   -3.44104000298327
H         3.14177905833437    9.35169614327723   -2.62411810044887
H         3.58164531606614    9.54801240091498   -0.20519465993054
H         2.40963600891682    8.11406302897153    1.38557119075225
H         3.14015960705863    5.06498262142516    0.63916059179536
H         4.99627579846889    3.05468656527828    0.36545129469524
H         6.43010566013696    1.01910837840076    0.20335458995932
H         5.30978071335477   -1.19587997223144   -0.06643954948317
H         2.85251912257515   -1.29471367048850   -0.20433494433164
C        -1.24042259334927    1.18796515084373   -0.44585593508281
O        -2.35154109150761    1.39803258149596   -0.61040436376579
C         0.27359990776997   -0.87109589261050   -0.62239944745728
O         0.08304338288142   -1.96784104596979   -0.89253101382267
C         0.75628639232600    1.18837555546983   -1.98025783649264
O         0.90638276580765    1.38457333548406   -3.09669445071978
C        -2.02329738771243   -1.15678135972157    4.23024399085260
N        -0.99396181255481   -0.44034126437402    3.53022586914434
C        -0.87105947792353   -0.28947608393187    2.20506751674869
N         0.18354933920920    0.42193703257854    1.84822837975391
C         0.80806710902060    0.76472833825137    3.03269929447177
C         0.06287323840917    0.22111793751567    4.10337412608146
C         0.42999840970341    0.38897620714859    5.43178353385449
C         1.57124168529956    1.11960858433480    5.67944562331693
C         2.32343736670403    1.65928821864823    4.63363699295747
C         1.96328554481184    1.49293972539155    3.31417778765899
H        -1.59532957805622   -2.00829815812647    4.76235609498477
H        -2.76406489336125   -1.51631492208143    3.51949794721405
H        -2.50989426967209   -0.50018468376426    4.95284498068183
H        -1.57949780402459   -0.71896892124643    1.51741997259850
H        -0.15246497498562   -0.03684337923149    6.23265359746624
H         1.89542308801563    1.27621438862240    6.69581911835224
H         3.21575582917367    2.21911606297907    4.86819097638422
H         2.57485874894103    1.91353368958793    2.53355892151919
