55
 energy: -100.261884610846 gnorm: 0.000838312305 xtb: 6.4.1 (afa7bdf)
Mn        0.54091408470033    0.71314558518221   -0.27950722702998
C         2.93906389598077   -1.81507671678513    0.07458308901778
C         3.52916935673820   -0.44756484354089    0.02958277951325
C         4.91693529125964   -0.29551381910619    0.03588487771705
C         5.48085368423853    0.96491106520414   -0.00217760221776
C         4.63737662136743    2.06287590235344   -0.01859423281131
C         3.26671552429085    1.84290237578302   -0.01992912739312
C         2.30154696181280    2.92385953295762    0.01835429163287
C         2.35932017455321    4.30193864223266    0.07819912593857
N         1.06649931563001    4.69818492038408    0.12311118088180
C         0.53919036822385    6.00022881192314    0.16429556425680
C        -0.82165054598826    6.16806176583254   -0.08409328285079
C        -1.37319705772550    7.43238668802971   -0.06008780492346
C        -0.55269911551521    8.51704306002867    0.21128910829745
F        -1.07991542431603    9.74284173681454    0.23302146282295
C         0.80149065514031    8.36357066819725    0.46467214507633
C         1.35024146098199    7.09611408080883    0.44329452935080
N         0.26333727977773    3.64391208965269    0.09735650562441
N         0.98487989504530    2.58506770960279    0.03469076824291
N         2.71472564008192    0.60955736882383   -0.01380367035031
H         2.10240740147799   -1.84673780986427    0.77210250016833
H         2.57233167390337   -2.09237490202841   -0.91452401583687
H         3.68271474519049   -2.54656701267355    0.37803690923189
H         5.54186253865909   -1.17318347690050    0.06756949381053
H         6.55161232078427    1.09286015600089   -0.00880886685551
H         5.02249271930913    3.06912387494078   -0.03142101580991
H         3.18788869530876    4.97588378758876    0.06811803271566
H        -1.42964562714415    5.30348972010955   -0.29644451385880
H        -2.42232846825545    7.58819032049352   -0.25174040774283
H         1.40755891748889    9.22950819280923    0.67621204794942
H         2.40056348067451    6.97573869698638    0.65442507118273
C        -1.18248154868559    1.09840986714466   -0.55049575496381
O        -2.27823674798457    1.34350267695202   -0.76486603071946
C         0.12749925953540   -0.99992301358894   -0.58028669074860
O        -0.27316609287602   -2.04682428481802   -0.82480202847955
C         0.84943987156967    0.88921520760080   -2.03055052552926
O         1.03104375088603    0.98761308754633   -3.15576752083066
C        -2.07514367271452   -0.83192684311135    4.32448093553172
N        -1.01226834724347   -0.23178308799310    3.56736745581885
C        -0.90642643616776   -0.16911036458334    2.23348786299012
N         0.19086302613122    0.43806374205359    1.81710831217606
C         0.86277104759673    0.80387254732643    2.96843870721292
C         0.10287526587063    0.38103023194637    4.08211894938407
C         0.51176710843037    0.59877556094776    5.39097041743971
C         1.70983667683081    1.25412637795738    5.57234379191869
C         2.47552821646620    1.67562979279371    4.48263893974621
C         2.07332511686816    1.46138957687674    3.18243566491041
H        -1.69329192419139   -1.66870961737582    4.91210266523640
H        -2.84469069100692   -1.19423213833523    3.64633656203137
H        -2.51267741488131   -0.09803258423474    5.00273280600822
H        -1.65908135283280   -0.58428662843405    1.58508498428568
H        -0.08235150443129    0.26699751360566    6.22699519593635
H         2.06804053076985    1.44461389811989    6.57136809831208
H         3.41067800325828    2.18149083927557    4.66734497471998
H         2.69145039510561    1.79278947048061    2.36457051188524
