55
 energy: -100.702220090401 gnorm: 0.000827413052 xtb: 6.4.1 (afa7bdf)
Mn        0.36585837401928    0.61269541164670   -0.43453527289465
C         2.17040714946502    9.46530405855151    0.33267871721555
C         1.69044404392347    8.07666640632812    0.65111332962907
O         2.42149867195451    7.11436781877229    0.78350308725870
N         0.34280125512555    7.96766838606043    0.78332361974226
C        -0.30839502642155    6.74551880622650    1.18605444426163
C        -0.72247692973514    5.85367015390922   -0.01015426265625
N         0.05278713293450    4.64479213603928   -0.08830133569367
C         1.39222199043093    4.51230212895365   -0.11095048337573
C         1.59907924425002    3.14836605104385   -0.18726552881879
C         2.74679332421826    2.26899456732422   -0.20053621658308
C         4.06605023312050    2.71337043770202   -0.15379797398709
C         5.08507246182035    1.78240544554324   -0.11476578156314
C         4.73801123678183    0.43504679396464   -0.11716117544888
Br        6.06774136243941   -0.91071168548254   -0.03864797127865
C         3.39790329128752    0.06707335064338   -0.17661180929839
N         2.41619227180506    0.95957584276283   -0.22078639384861
N         0.36918052581831    2.56109859518976   -0.20328383452198
N        -0.54092523310396    3.46459791064497   -0.14279468698981
H         3.23763292738790    9.44298233528343    0.13239601911636
H         1.64678447579571    9.86604613323195   -0.53214438291624
H         1.98635784564890   10.11916513947409    1.18301074594653
H        -0.22896072602264    8.78548717513132    0.64767911756920
H        -1.18908878297318    6.99874085069079    1.77651310439455
H         0.39159708768294    6.19309877656234    1.82125825686086
H        -0.59754762293417    6.41709692201451   -0.94041701009207
H        -1.76385485557972    5.53781699200474    0.07024879171822
H         2.06066103774959    5.34905119607386   -0.03222471188548
H         4.27605107450886    3.77099983192877   -0.14335878754795
H         6.11957723669189    2.08512875234691   -0.07940976783154
H         3.12798289775315   -0.98067593969195   -0.18854449462762
C        -1.41377342119591    0.53694539370960   -0.63247408078960
O        -2.54403445004529    0.49048138466518   -0.79362237271543
C         0.51739848800968   -1.16007818215036   -0.61422840200305
O         0.58337216383060   -2.29416760829911   -0.75568676255668
C         0.54170820549166    0.76539167370942   -2.20814250245432
O         0.64438750038522    0.83584906286328   -3.34418205780676
C        -1.60391175910648   -1.44846201801350    4.28872974220951
N        -0.76961099846762   -0.59391122780482    3.49072090288577
C        -0.71257113893625   -0.54050030505680    2.15393595984270
N         0.14953575049902    0.35000782097681    1.69532630063825
C         0.70608104960803    0.92983821764502    2.82038162526728
C         0.12441084996612    0.33429574879506    3.96242441279569
C         0.47349021181625    0.69787525450101    5.25613879861003
C         1.42906700388753    1.68027443777507    5.39522232769015
C         2.01624619775522    2.27870737647287    4.27813676931968
C         1.67201200301321    1.92061986402734    2.99293133963663
H        -0.99070135098147   -2.03669184565709    4.97264966589992
H        -2.16085038703162   -2.12083411274267    3.64018101983118
H        -2.30637828096417   -0.85117442858277    4.87244937790800
H        -1.32197357335207   -1.17613370705352    1.53431287861462
H         0.01636817964045    0.22941793121851    6.11263768069478
H         1.73355925556613    1.99392047630778    6.38091507073977
H         2.76353148729852    3.04288950940344    4.42697986701265
H         2.15138603752846    2.40179350245069    2.15700708681929
