59
 energy: -107.491647237611 gnorm: 0.000344598993 xtb: 6.4.1 (afa7bdf)
Mn        0.50095219216409    0.82613722536294   -0.25451877671503
C        -3.53450590951094    6.79892427808314   -0.16132744471053
O        -2.60540945875729    7.85270345187378   -0.02394396130502
C        -1.30205734306477    7.56457767345127    0.07701432480446
C        -0.74978130033037    6.28976564077273    0.06044453529017
C         0.62896553898809    6.11710273718900    0.17661031111264
N         1.12153203641686    4.80105717948799    0.14239089657402
C         2.40309543959887    4.37283977124451    0.08469362592728
C         2.31206770307389    2.99572938378910    0.03891541982245
C         3.25131761360843    1.89299203526102   -0.00766226197193
C         4.62655929214100    2.08108558202995   -0.02462941033934
C         5.44445610625415    0.96387811276523   -0.01556181729028
C         4.85221329390586   -0.28283744914904    0.04081584205920
C         3.46139778588971   -0.40256859909446    0.05487704895057
C         2.84060067957108   -1.75540996745908    0.12793072214271
N         2.67126949044050    0.67254868438643    0.00936998141173
N         0.98865065356986    2.68843773197145    0.07590168889074
N         0.29347670660559    3.76599566796882    0.13819229351911
C         1.48326790212490    7.20129735832451    0.31391015655789
C         0.94477993736590    8.47791146046364    0.32738594935046
C        -0.41656933989506    8.65259794938287    0.21042989893989
F        -0.92023235995845    9.88952017222411    0.22510554024802
H        -3.50928087746931    6.13137932477879    0.70469829037968
H        -4.50900739491963    7.27893298273479   -0.22068896599437
H        -3.35503055281201    6.22558465542377   -1.07497856664005
H        -1.36816269094458    5.41437211529433   -0.04617221394561
H         3.24841997450353    5.02494361708143    0.06300700229901
H         5.03442200680550    3.07815044206940   -0.04637813710558
H         6.51764174303412    1.06689042831506   -0.03992846552624
H         5.45687126940943   -1.17465940880018    0.07096523521979
H         3.56563323632494   -2.49408584182827    0.45809964399066
H         1.99668241312146   -1.75114310259051    0.81731142741167
H         2.47837579165423   -2.05159065490585   -0.85716086129160
H         2.54806924802728    7.07835980061265    0.41514120879304
H         1.57690441806469    9.34494005540105    0.42868652685739
C        -1.21037209833038    1.26512768223616   -0.51345699394223
O        -2.29787704468032    1.55467689570222   -0.71746728898102
C         0.05803550643012   -0.87337997879443   -0.58724018212840
O        -0.35293725727213   -1.91019212517492   -0.85644641756950
C         0.81042782507126    1.01683922110532   -2.00371423421467
O         0.99063018787952    1.12126526581171   -3.12873905769374
C        -2.09093990864228   -0.83454974509658    4.32339403538914
N        -1.02921932354845   -0.22181322580709    3.57481483530769
C        -0.95065551581623   -0.08951407565494    2.24397631302269
N         0.15141787577744    0.51472289526025    1.83609337923199
C         0.85469077909345    0.80611513824654    2.98978838611347
C         0.11059437437678    0.33814021221945    4.09605480795398
C         0.55402273059952    0.47317923433839    5.40477831864540
C         1.76971748741372    1.09317007535710    5.59319257968932
C         2.51692809280652    1.56435901202735    4.51086820942294
C         2.08043649896898    1.43239919340274    3.21079074567099
H        -1.71219474990213   -1.69403668345110    4.87915832812952
H        -2.87138920658562   -1.16641177760331    3.64208354847914
H        -2.51339411226396   -0.11870599631134    5.03019484636539
H        -1.72603491535860   -0.45255291674555    1.59100988840665
H        -0.02802091976610    0.10710243984883    6.23498568715908
H         2.15530799603570    1.21858948554408    6.59231101764847
H         3.46441769185156    2.04426230922445    4.70161907319086
H         2.68173376079061    1.80468497038414    2.39783048702684
