61
 energy: -102.375309647410 gnorm: 0.000525162546 xtb: 6.4.1 (afa7bdf)
Mn        0.53800434399710    0.82849833429592   -0.24893203839389
C        -0.89402698866734   10.67570280372762   -1.01820134863484
C        -0.94809126214009   10.08466813950177    0.39370131206960
C        -0.39738554612405    8.69249509862270    0.39349824788033
C         0.94615244721895    8.45640949686450    0.66668589469890
C         1.47123733289288    7.17939376650889    0.62632363684266
C         0.64309586614096    6.11151512850352    0.29901889995387
N         1.13858291744026    4.79788563877228    0.23536719269298
C         2.42194698163520    4.37660466481403    0.18344809238014
C         2.33621261999334    3.00051275739358    0.09807397354106
C         3.28025814625664    1.90290502897403    0.04129073952067
C         4.65500529969820    2.09685956943707    0.03498613142474
C         5.47756457699185    0.98336376775657    0.03387046265021
C         4.89053428622367   -0.26668753119219    0.07102254372170
C         3.50043067902898   -0.39250254645990    0.07573470604996
C         2.88482964006058   -1.74873484571809    0.12952976322092
N         2.70580804953044    0.67972300452890    0.03889108381054
N         1.01373909235628    2.68864972702493    0.10811710277918
N         0.31403618156310    3.76271199352458    0.19002794058150
C        -0.70456779544271    6.32757304986144    0.02453440458974
C        -1.21169288533442    7.60920250857568    0.07357971683045
H        -1.30054563338688   11.68310783505647   -1.01638003842779
H        -1.47473441127191   10.06859521898668   -1.70847897227891
H         0.13220941170525   10.71668541774661   -1.37554186147830
H        -1.98391536131949   10.07194301146980    0.73628144766544
H        -0.36852985362074   10.71505961265947    1.06949580308627
H         1.59104573320082    9.28391650257275    0.92076917739680
H         2.51265447150995    7.02578991011274    0.86235527613526
H         3.26327942098511    5.03464606492180    0.18583829722951
H         5.05828914300488    3.09603805468492    0.02845535595508
H         6.55045814566473    1.09119933795139    0.01680872064042
H         5.49896807587078   -1.15618338715056    0.09328129175056
H         2.04064338032777   -1.75659194815549    0.81845430089643
H         2.52336907871759   -2.03250692137841   -0.85945360284369
H         3.61245650234558   -2.48921477721249    0.45007944387783
H        -1.33256993936295    5.48773366094608   -0.22643086537971
H        -2.25648058875136    7.77427374180198   -0.14067616719804
C        -1.17218580023860    1.25875523183918   -0.53678185089572
O        -2.25926994785631    1.52944018600542   -0.76467586399536
C         0.10131829892729   -0.87054560147803   -0.58634189678116
O        -0.30592270070755   -1.90859220929610   -0.85883779138899
C         0.87400713786816    1.02608223907654   -1.99200539036845
O         1.07132580950688    1.13230341748706   -3.11436267497704
C        -2.13280328407818   -0.80667301066332    4.29296413426168
N        -1.05420616549591   -0.20557637936813    3.55941630464267
C        -0.95226738230723   -0.08084175595262    2.22915655370859
N         0.16007680027375    0.51385127511206    1.83689536539566
C         0.84568982922935    0.80692526166456    3.00055804307256
C         0.07993228578360    0.35030461994075    4.09675435055472
C         0.50206510662729    0.49034286930046    5.41194101025599
C         1.71816882004928    1.10407331976347    5.61746193610578
C         2.48708440517642    1.56310472275304    4.54526030558090
C         2.07218670734676    1.42529193553444    3.23878561059021
H        -1.77116362126317   -1.66959149720195    4.85493830336768
H        -2.90662985108998   -1.13098151713369    3.60056236562653
H        -2.55809736401516   -0.08564826621354    4.99275595987294
H        -1.71873794243629   -0.44266053147317    1.56518813149737
H        -0.09609291781032    0.13258186018007    6.23431949999009
H         2.08733231777560    1.23349180745997    6.62230389265113
H         3.43456923259503    2.03770041343921    4.74917889654182
H         2.69079866714357    1.78652271891120    2.43396973941694
