61
 energy: -115.047686660568 gnorm: 0.002847430742 xtb: 6.4.1 (afa7bdf)
Mn        0.64334264829924    0.45509738810662   -0.40580257451552
C         3.20125930257994   -1.72930446148393    0.63186190158626
C         3.69609924382584   -0.56887873294770   -0.16022274263763
C         5.03541028429967   -0.51895618923299   -0.55266567476466
C         5.51262239169321    0.56054497697275   -1.27050016601687
C         4.64277469071875    1.60241194600206   -1.54922411371131
C         3.32474372359313    1.48937851540995   -1.13116903995229
C         2.34670568546692    2.54702294008218   -1.30245568334614
C         2.38637454498906    3.89467037494701   -1.60582314956134
N         1.11705329394122    4.31519892257184   -1.44484633078388
C         0.61950784467586    5.66846562371556   -1.43497578990409
C         0.67846363977466    6.16914767157210   -0.00740080756341
C         1.55464084368031    7.17789319996013    0.36662869617044
C         1.64134726969156    7.56751884601717    1.69214003095601
C         0.85278515037446    6.93574260229965    2.64434044885187
C         0.98768501538523    7.36006685767054    4.08217953893807
F         0.20603919161548    6.65154782276308    4.91098441769542
F         0.68379126088043    8.65149810890104    4.26264820060715
F         2.25093441103077    7.20056541845310    4.52362498116726
C        -0.03240458950460    5.93151433321043    2.27807397787344
C        -0.11532661879045    5.55110044753579    0.95262220049271
N         0.33972109912630    3.31857139985395   -1.06858469778472
N         1.05951074393636    2.25961357155457   -0.97642402826929
N         2.84563288887849    0.41186703932590   -0.47222082195354
H         2.67911391176955   -2.43040274923935   -0.02024924634224
H         2.50705766212162   -1.39407195520199    1.40248654552787
H         4.02820009190347   -2.25602577174537    1.10043363990721
H         5.68954935894529   -1.33512720486001   -0.29202854369299
H         6.54062492229737    0.60005582018402   -1.59489122560761
H         4.96684674237620    2.47971979249484   -2.08467648701298
H         3.18277938219572    4.54136913784642   -1.90639929406975
H         1.22870368834096    6.28294498212202   -2.09871378053441
H        -0.41303387503103    5.64781798025241   -1.79148926149628
H         2.16811740372525    7.67029835112518   -0.37265388961981
H         2.31979642129292    8.35283424132874    1.98797848191502
H        -0.65092121842859    5.45803427050918    3.02404551833726
H        -0.79593312610583    4.76663689816618    0.65544063501376
C        -1.11443065925666    0.70768109546402   -0.59970388904228
O        -2.23908942754453    0.84900682853018   -0.74757234871737
C         0.27184227013405   -1.18979723078286    0.19090072448024
O        -0.10353252929070   -2.22217504495598    0.52047139599279
C         0.72247292386967   -0.20374888445432   -2.06538668717545
O         0.77017864883674   -0.63706744205303   -3.12252255218343
C        -1.48117416673093    1.55967854503575    4.56241339112092
N        -0.50025149086667    1.64317601900612    3.51516120557229
C        -0.48552160405179    0.95508616935312    2.36565408207495
N         0.55201327805897    1.23248059138032    1.59563957614816
C         1.28515555804858    2.17046143376477    2.29833745887295
C         0.61800552816081    2.43882808514611    3.51498445792378
C         1.10666337265149    3.33930268343344    4.45263287470046
C         2.29138696230680    3.97449549557008    4.15170853219142
C         2.96784292611174    3.71588622063702    2.95658539854989
C         2.48940522033126    2.81896752064390    2.02661731629532
H        -1.01853204108439    1.20239848836826    5.48393474636345
H        -2.26895123300961    0.86962200931815    4.26796432662357
H        -1.91705546438653    2.54268716085593    4.74877276117554
H        -1.25612584385053    0.24513636643459    2.11844930685066
H         0.58565318592323    3.52805203064458    5.37740755525565
H         2.71545012876284    4.67448767351492    4.85302590563237
H         3.89973215318954    4.22573988773907    2.76596768947170
H         3.05453797794618    2.61502088093287    1.13131390556685
