56
 energy: -100.101593278466 gnorm: 0.000848191358 xtb: 6.4.1 (afa7bdf)
Mn        0.13908813771749    0.87360921992698   -0.33326885521014
C         6.15752187956264    3.39961456530577   -0.83722226126167
O         4.77820721307207    3.21435446992125   -0.56667536278416
C         4.25589820197365    1.98191600070128   -0.69527469762455
C         4.95830372198597    0.82611265820903   -1.03042360939051
C         4.26907936056401   -0.37226902664820   -1.10255028129309
C         2.90620137918561   -0.40480439668621   -0.85782882488522
N         2.21410655968111    0.68851733902291   -0.54668202589861
C         2.87201433290399    1.85828195276989   -0.46044868199458
C         2.02765319317214    2.96859999362880   -0.07792342919657
C         2.19441480890899    4.30837033264227    0.20841887750858
N         0.95751859174516    4.74250501417749    0.54146774827927
C         0.54592654336176    6.03503553207460    0.91432676795762
C         1.47178652999729    6.98950749092618    1.31964836831851
C         1.02952632021161    8.25067199133025    1.67646790783239
C        -0.32105420190932    8.55736204670992    1.63522025062881
C        -1.23929794990555    7.59797384211846    1.23794636164409
C        -0.81228629456886    6.33463428290771    0.87536553796502
N         0.08491717671383    3.74914528683502    0.46959843301038
N         0.70753754937584    2.68858845002259    0.10334542411061
H         6.34153593526110    4.46252808798925   -0.69582641802093
H         6.39955696900027    3.12436249260693   -1.86624840818793
H         6.77831957803883    2.82842616029808   -0.14252430981849
H         6.01691393558955    0.85398154068399   -1.22939475200547
H         4.78880662113283   -1.28244186853296   -1.35322134517790
H         2.36007997634527   -1.33555712240842   -0.91712311016746
H         3.06361980358831    4.92646526907782    0.16936525915243
H         2.52349795687078    6.75554011432560    1.37215337554780
H         1.74447025369105    8.99458079655259    1.99126050291821
H        -0.65710207256382    9.54333701882272    1.91489197522279
H        -2.29116774656693    7.83405982700972    1.20660097267353
H        -1.51084258683244    5.57637359283852    0.55942707725161
C        -1.59815084461738    1.28300365609416   -0.18941420471909
O        -2.70832206749061    1.55363206388010   -0.14558400880352
C        -0.22905114291354   -0.84068793939771   -0.68730889767796
O        -0.49936385631551   -1.92767657550571   -0.92642117216606
C         0.04698208004804    1.24176848985605   -2.07962193063460
O        -0.02093922464428    1.46278732493713   -3.19946579517006
C        -1.64132443950053   -0.94080824540475    4.56206625882650
N        -0.69377466075917   -0.34349531159615    3.66310359956953
C        -0.81712833112524   -0.19993424750934    2.33701696094609
N         0.21697702343249    0.39493260136741    1.76988981213714
C         1.09668387572872    0.65735313922561    2.80303907680948
C         0.52048222908519    0.19482676270327    4.00772442833307
C         1.15657946207001    0.31524037003699    5.23586837977788
C         2.39875244542319    0.91055303911618    5.24265451736012
C         2.98856908050002    1.36292568805621    4.06009895522756
C         2.36075861564075    1.24462138550517    2.83939323871593
H        -1.20847192304493   -1.82469641892245    5.03390564696507
H        -2.53246194373060   -1.23123365479311    4.00986528652517
H        -1.91886151593933   -0.22784973734563    5.34002164648064
H        -1.68675683915829   -0.54946152199401    1.80716519810224
H         0.69794320298464   -0.04451415075907    6.14267409777315
H         2.93048498758943    1.02638503512043    6.17357308363562
H         3.96737216385959    1.81523185584851    4.10636445422460
H         2.85082294551687    1.59238243626415    1.94535390068842
