58
 energy: -99.208335779295 gnorm: 0.000959250783 xtb: 6.4.1 (afa7bdf)
Mn        0.46659049503801    0.81535087097616   -0.29307136625383
C        -2.70174460804714    7.87723371475865    0.06247673637483
C        -1.22778366604452    7.63070372257649    0.07940380608338
C        -0.33374714812915    8.69509811810311    0.10447570404876
C         1.04102632587965    8.49620386082144    0.13251050475788
C         1.97596532095740    9.66258475050731    0.17353977786451
C         1.53254519817286    7.19757962751433    0.13752116245769
C         0.64763543668994    6.12679208053505    0.11191440747533
N         1.11607640821708    4.79950884224043    0.09445062630851
C         2.38930932163745    4.34553880201486    0.09996705056259
C         2.27319984648017    2.97081812423464    0.03887628288146
C         3.17411901673973    1.83728584803614    0.01591509990986
C         4.55961890256581    1.94286721232854    0.07505496758864
C         5.31596059519154    0.78443560495397    0.08295298298050
C         4.65690926052834   -0.43505477706219    0.03952247734824
C         3.27276540305828   -0.45489015262058   -0.02846612423384
N         2.53210756849396    0.65063617290152   -0.04504297092177
N         0.94184310601538    2.69100485797685    0.00624498126882
N         0.26851720101220    3.78331163772126    0.04102385354951
C        -0.72628583884326    6.33759950349952    0.08339918614533
H        -3.04918981322308    8.10894775750415    1.06924945688956
H        -3.24049593477809    7.00255236084662   -0.29080041111541
H        -2.94299069729969    8.72487638786615   -0.57404582232479
H        -0.71730856419991    9.70455750742316    0.09741741210287
H         1.58645358448844   10.48876530665816   -0.41538098201367
H         2.08854265778244   10.01025219954541    1.20056341936538
H         2.95952562511528    9.39376750033139   -0.20277031432930
H         2.59977320707114    7.04316894009978    0.15429306637798
H         3.24960746003943    4.97708232749861    0.13760752511516
H         5.02210096752913    2.91612372191544    0.11342330963163
H         6.39259829196347    0.83190008586407    0.12365366900383
H         5.20454056694422   -1.36297564351281    0.05090599819072
H         2.74512809481932   -1.39852167322026   -0.07336492739507
H        -1.38904155747182    5.48766161462918    0.05623897854311
C        -1.26645882844682    1.19800720080555   -0.53534783200186
O        -2.36295178037426    1.45109469577228   -0.73574547874543
C         0.17766111356003   -0.93362251360487   -0.52714685816150
O        -0.03743297289484   -2.04592210446191   -0.69659436273950
C         0.71967872185954    0.98964100542667   -2.05382846632389
O         0.86736382748745    1.09111417047111   -3.18319762708607
C        -2.10252897983094   -0.81922852581758    4.30870598897404
N        -1.04376917366232   -0.20080706980290    3.56074474006753
C        -0.96417441880793   -0.07192827891142    2.22988251658163
N         0.13413760539500    0.53806559052423    1.82114818967626
C         0.83524816817166    0.83512502266404    2.97460406782174
C         0.09278699530869    0.36520227205702    4.08147036798992
C         0.53339416084804    0.50439332623122    5.39059157262111
C         1.74497544090272    1.13166680676942    5.58069303421164
C         2.49028953742741    1.60590263234928    4.49874056363014
C         2.05637358690834    1.46944744795152    3.19828424426905
H        -1.73572325141154   -1.71340420361879    4.81440646369228
H        -2.90920128785924   -1.09721501007288    3.63493857185178
H        -2.48524716826888   -0.12538623894379    5.05729301821649
H        -1.73715994935345   -0.44113098481004    1.57772491584871
H        -0.04741763498476    0.13501734689776    6.22023067771580
H         2.12848258612725    1.26036962930096    6.58019163124426
H         3.43460864707473    2.09199933062875    4.68970523950354
H         2.65782002046907    1.84604763678140    2.38767529687362
