85
 energy: -153.046803357026 gnorm: 0.000302774218 xtb: 6.4.1 (afa7bdf)
Mn        0.21675795781922    0.69354708749396   -0.25913092694615
C         6.21259631982000    2.97695775967829   -1.55121419836501
O         4.83798784800715    2.87407558514014   -1.22157999739738
C         4.32020511208911    1.65474924946208   -0.99082888653338
C         5.02443454469997    0.45280998550798   -0.99298425325472
C         4.34011692924592   -0.71784329801203   -0.71366470331111
C         2.98064842296460   -0.68112817431729   -0.45331338886085
N         2.28664616837631    0.45480264823951   -0.45635217286033
C         2.93958151938811    1.60078025660823   -0.71502209890012
C         2.09634486198722    2.77366497630436   -0.64698522761101
C         2.25527368660932    4.14020214121693   -0.76520211218715
N         1.03397290341615    4.64361021391267   -0.50540955750082
C         0.61384635048509    6.02005733185095   -0.52882142698508
C        -0.59172747530711    6.09617129632175   -1.52023244444901
O        -0.63207033305138    5.38726972849565   -2.49336678086457
N        -1.49126009546797    7.03287245045221   -1.18726227282311
C        -2.72512058823251    7.22535747151007   -1.88308726319818
C        -3.11000214036239    8.71104315066162   -2.09192691028660
O        -2.60652294206979    9.65933254003052   -2.61136203944934
N        -4.28351716932436    8.53920989792847   -1.40064419172923
C        -3.99677365125630    7.18550323802156   -0.99759671261319
S        -3.74577757145797    7.26113277315141    0.81495005232962
C        -4.23022671717150    9.05990368481397    0.92806514583971
C        -2.96443384434752    9.89761985813764    1.06701050785245
C        -5.14453391865401    9.24298634772328    2.12827598456184
C        -4.93113228571023    9.37087170549921   -0.42909424022675
C        -6.41849422866601    9.02448333025055   -0.39026026079348
O        -6.86541765535377    7.92879131182739   -0.57540342903648
O        -7.15405151134157   10.09806726293855   -0.12440733142824
C         0.28230178669216    6.54139369414563    0.84863008931825
C        -0.55356468731093    5.82400529457469    1.69806168296942
C        -0.88785082767418    6.34006832385050    2.93708194104638
C        -0.40150289384193    7.57502074062349    3.33288464526167
C         0.42805084704557    8.29404244987299    2.48864522965235
C         0.77246941090074    7.77911776865878    1.25093036972296
N         0.17233420601073    3.67971954970474   -0.25199979845436
N         0.78971849109583    2.55848435667390   -0.33028669453468
H         6.39386942672352    4.03700014043041   -1.71577211114571
H         6.84461467556982    2.62377752373305   -0.73246635866028
H         6.44334841627165    2.42463373063644   -2.46505331799018
H         6.08058965115453    0.42427373822867   -1.20455793298024
H         4.86145668253931   -1.66095534496130   -0.70235669362682
H         2.43803683416794   -1.59132511099059   -0.24042655764800
H         3.10752612302494    4.73597674349334   -1.00951921398456
H         1.42703709125288    6.60780042798685   -0.96978007428349
H        -1.41494344865397    7.49267347708513   -0.28731051392586
H        -2.73792521330509    6.59138601124485   -2.77068585491026
H        -4.76544907345159    6.44866073348983   -1.22469109446371
H        -2.36000589390674    9.85664421571528    0.16232525799917
H        -2.36645775189286    9.53298081147594    1.89998549355119
H        -3.22601964133624   10.93689851092353    1.25579050790278
H        -5.54928741730214   10.25303840217015    2.13941528993218
H        -5.96736308969427    8.53212001682789    2.10205510233508
H        -4.58407763290195    9.07984186306318    3.04575096195272
H        -4.81104375352451   10.42515088835261   -0.68821222547643
H        -8.10171409290686    9.88285376218144   -0.10690003604324
H        -0.94780609159829    4.87054341329200    1.38017133945926
H        -1.54157545963881    5.78119603495779    3.58792421598762
H        -0.66971351474508    7.97831517739367    4.29724309064189
H         0.80859672409933    9.25755674032772    2.79081077079381
H         1.41623856337342    8.34511067704183    0.59329502214322
C        -1.51566108530527    1.13387679674190   -0.13672536039848
O        -2.62020687428336    1.42252046738915   -0.08175798547802
C        -0.14866659854662   -1.05378785152655   -0.20600756058747
O        -0.41329181126985   -2.16964430451443   -0.20374171813003
C         0.06178281591182    0.62927902492386   -2.04150349165288
O        -0.04415486605641    0.56403577882694   -3.17642772595425
C        -1.26005148477135   -0.19631623739010    4.98126572422900
N        -0.42462572986016    0.32644289336282    3.93659850438957
C        -0.55771391848034    0.12559070781340    2.61824466738366
N         0.36295699902318    0.73530470425428    1.89395297150236
C         1.17057202856285    1.38691619992384    2.80619786697318
C         0.67137889089020    1.13495380217977    4.10421263908864
C         1.26199189164818    1.65728715191860    5.24687452109202
C         2.37757923145766    2.44598347447651    5.07095994259782
C         2.89164542801485    2.69566357917153    3.79648292164245
C         2.31036970475318    2.17638161885871    2.66045702361560
H        -0.67069840147107   -0.81479257549571    5.66026966433018
H        -2.05185612972196   -0.80095482938975    4.54445560054595
H        -1.70673001864231    0.62119096701738    5.54953878404931
H        -1.35018474821430   -0.48082383951960    2.21379621440810
H         0.86488618860258    1.45143588572039    6.22777573073426
H         2.86936666140070    2.87446475130009    5.92968904714624
H         3.77341975053537    3.31067257221271    3.70197812427416
H         2.74288313205859    2.37518868858957    1.69411049885318
