62
 energy: -106.929446509221 gnorm: 0.000906503923 xtb: 6.4.1 (afa7bdf)
Mn        0.44457278525008    0.92521175721198   -0.12858664398991
C         4.60085840539499   -0.41380738831898    0.26185548132137
C         5.27830836611674    0.79041692128877    0.38057588342604
C         4.54124813395760    1.96100103662175    0.40933870942474
C         3.15651967595427    1.88245527048909    0.30904939602223
C         2.27360347649291    3.02908600036205    0.37578475399551
C         2.40868403292277    4.39485889549912    0.54042829990132
N         1.14569851122756    4.86244165975251    0.55475029367596
C         0.71080670124549    6.22966284962426    0.60896401407315
C         0.64053127502936    6.83806245149727   -0.80412880416957
C         0.14239441504352    8.24182464028903   -0.72825670709882
C         0.86785392751473    9.38926553527935   -0.88169578443892
N         0.06194327756462   10.47668593161774   -0.71735884403440
C        -1.20967180610539   10.05526802140904   -0.45068845528382
C        -2.37000719847569   10.78103957122912   -0.21136351404297
C        -3.52523339810548   10.07116414407648    0.03162077627059
C        -3.53330115698400    8.67304059776727    0.03356322145694
C        -2.38786199047654    7.94804976499405   -0.20239033526452
C        -1.20085345477623    8.64068593606810   -0.44590636087883
N         0.28247759172547    3.87753489522573    0.40675252298457
N         0.93775107772266    2.77672851839613    0.30051225732759
N         2.49736085640384    0.71217410187740    0.17155120879912
C         3.21906075862622   -0.40585232654493    0.15482941626837
H         5.13263796060549   -1.35083301705360    0.24459701641326
H         6.35406760184517    0.81701205948933    0.45163415394794
H         5.01826930328701    2.92303555495378    0.50713704515075
H         3.26575317604906    5.02595030825302    0.64282124448001
H        -0.28284690416430    6.24783255149871    1.05910906038103
H         1.40404563557228    6.79997225184270    1.23026408848719
H         1.63115249503670    6.81874716095027   -1.26350942111846
H        -0.03875707455234    6.23340181699913   -1.40954097883413
H         1.90995776830868    9.50663680237736   -1.11165152951804
H         0.35124590044627   11.43589509768081   -0.80583528247541
H        -2.36394923332620   11.86034597790774   -0.21954402750851
H        -4.44598111800000   10.60141050454299    0.22030023875252
H        -4.46286174319837    8.15726025631971    0.22194318104194
H        -2.41074262254060    6.86776686515185   -0.21020151330751
H         2.67759530253441   -1.33680216851257    0.04974309562166
C        -1.28293368374717    1.33375869435669   -0.37971345869795
O        -2.37774395704412    1.59670712265045   -0.57307074887412
C         0.14471089917026   -0.79835373866223   -0.49445396076717
O        -0.07526087656502   -1.89185355447554   -0.75592383715788
C         0.75570510850069    1.19989704005302   -1.86699496595773
O         0.94266163930323    1.35681891211325   -2.98431274844650
C        -2.20752236339258   -1.04471786909511    4.28985320983319
N        -1.15093587291149   -0.34860428701030    3.61018931155722
C        -1.02786384009595   -0.15781502390195    2.29018522122847
N         0.05600460440674    0.51737151138273    1.95109110532241
C         0.69862868505206    0.79491278773654    3.14271707526051
C        -0.06283593049923    0.24533933570399    4.19879518935641
C         0.31997144438395    0.34896925904101    5.52926799387313
C         1.49210922326079    1.02265800765681    5.79358561150606
C         2.25624229451861    1.57414500687773    4.76255784820627
C         1.88033561568558    1.47192815839083    3.44101785137121
H        -1.81536497143520   -1.93404376110282    4.78664950568365
H        -2.96693696535524   -1.34388865874131    3.57071243231483
H        -2.66097475819375   -0.39513946605645    5.03979540152343
H        -1.75868391425868   -0.53080101819217    1.59299736319172
H        -0.27458542617801   -0.08083913285882    6.31908893414069
H         1.82971430694234    1.12755875622662    6.81224316705371
H         3.16896354339931    2.09356599841455    5.01099242215241
H         2.49635548369738    1.90606911120896    2.67109191905075
