58
 energy: -102.780217709008 gnorm: 0.000722021571 xtb: 6.4.1 (afa7bdf)
Mn        0.45378767216881    0.81296661730586   -0.29243226346412
C        -2.69795722221164    7.88039169034889   -0.02853761507018
C        -1.22736059765079    7.62886149197215    0.05574545667053
C        -0.33366646841059    8.69144485502382    0.12570991284115
C         1.04024093817666    8.49120825401813    0.18671657675095
C         1.96946856659235    9.65916807960251    0.27699646099817
C         1.53110457060607    7.19264487236818    0.17878207005072
C         0.64646480159818    6.12345506891945    0.10392803418827
N         1.11413825748251    4.79608160852889    0.07660045107861
C         2.38669738655156    4.34129668182857    0.06132597685297
C         2.26839171868730    2.96559371338260    0.00706516991160
C         3.16488074911003    1.83106423810084   -0.00827331645135
C         4.55329124324640    1.92649243271308    0.04652072323500
C         5.30662347742021    0.76985397899620    0.08361190789378
C         4.63333671842198   -0.44734347511508    0.07164341329969
Br        5.58181834598937   -2.08388625267701    0.15323235702060
C         3.24419105106188   -0.46545244056356   -0.00162025359025
N         2.51809946552061    0.64433976008934   -0.04600961509755
N         0.93542521632503    2.68740436049389   -0.00213742364101
N         0.26482811740000    3.78061364507905    0.04029015913481
C        -0.72629711027157    6.33555445115629    0.04342500547818
H        -3.26349360611402    6.98101712597563    0.19849273614673
H        -2.99273518359586    8.67007322685753    0.65865242541624
H        -2.95967279977815    8.20366993982743   -1.03582521900800
H        -0.71618371671270    9.70133554767726    0.13111388625534
H         1.96333433667206   10.06019714884730    1.29047351930477
H         1.65129113661786   10.45337983995919   -0.39418815201940
H         2.98869293997210    9.37513600375486    0.02856076370412
H         2.59689033671028    7.03598459449045    0.23078082794971
H         3.24815300498423    4.97220972168536    0.07751270153847
H         5.02625149625448    2.89524131544451    0.06115351887844
H         6.38365651975035    0.80392064005708    0.12493761093593
H         2.71997134259426   -1.41173385464001   -0.02571138740403
H        -1.38831068099617    5.48684761747350   -0.01840442238934
C        -1.28392627150158    1.19725908000554   -0.50909027110508
O        -2.38366859388691    1.45465383515715   -0.68041269184756
C         0.16438996535587   -0.93542898613825   -0.54029617051684
O        -0.04478827118881   -2.04543606762506   -0.72522701860324
C         0.69384137981436    0.99003030405013   -2.05601700736639
O         0.84077802053737    1.09004671007070   -3.18484028046355
C        -2.01988892489758   -0.90749750087873    4.32728210383297
N        -0.99309288819642   -0.25041347574836    3.56786820526161
C        -0.92479407018198   -0.13100894455645    2.23601803073857
N         0.14184334137177    0.52775800816081    1.81711340182273
C         0.83099184536212    0.87102947274437    2.96516831125011
C         0.11529270999541    0.37706049058768    4.07907707046864
C         0.55059233284000    0.55282366701265    5.38570605974619
C         1.72945285501149    1.24216852718928    5.56632640803634
C         2.44863636080522    1.74012453755185    4.47735451865921
C         2.02006539710098    1.56696779133985    3.17940243099349
H        -1.60025999829911   -1.75259959319372    4.87614493243549
H        -2.79495942224250   -1.26869913205909    3.65442485188115
H        -2.46146053166758   -0.21014361749387    5.04091803240449
H        -1.68083089016909   -0.54335382159553    1.58945522606054
H        -0.01025187131206    0.16478958162494    6.22048668490728
H         2.10754496107762    1.40189424283081    6.56335438799982
H         3.36775179977537    2.27509446512488    4.66066590169417
H         2.60134074034529    1.96434892683020    2.36381088435336
