70
 energy: -122.225695175695 gnorm: 0.000438468215 xtb: 6.4.1 (afa7bdf)
Mn        0.49892855616807    0.90239652913764   -0.01018356259585
C        -6.51503143554274    8.71915722483527   -2.59251577643695
O        -5.32763383895724    9.47475008099692   -2.66209278174474
C        -4.21941413957310    9.01524592846046   -2.03971160010479
C        -3.08007703079256    9.81968120879339   -2.14743457405505
C        -1.90298179766463    9.45315003445857   -1.53937843089037
C        -1.81235427595515    8.26327718884763   -0.81289868853710
C        -0.56182891229219    7.87559232963012   -0.15432453195833
C         0.26109132820163    8.83080770773728    0.44739151978717
C         1.43246077876967    8.46312735492814    1.08234143814014
C         1.82138759429094    7.13584807070355    1.13334307154801
C         1.01261634606239    6.18166990961218    0.52675643534331
N         1.37192159583582    4.82105633970682    0.54404333359065
C         2.59056811107172    4.27384336610950    0.74823237323874
C         2.38290984147745    2.91297442700342    0.64239291945957
C         3.17977285118176    1.71225461737270    0.76504938436554
N         2.47892167985627    0.58047573853841    0.57938601182483
C         3.11006349520608   -0.58373067171349    0.71247358118614
C         4.45654322457017   -0.66322847462375    1.02537839899964
C         5.19504750717158    0.49348537815081    1.20818540595370
C         4.55243597912303    1.72309379271950    1.08422549090102
O         5.11951149632989    2.93100231643163    1.25120558416564
C         6.50464264171590    2.99656817902337    1.54522888436932
N         1.05740208713631    2.73598281938776    0.38627480472218
N         0.47030389765176    3.87672562283872    0.33003878253878
C        -0.16775311702490    6.54090722664809   -0.10877115099588
C        -2.94574005446276    7.46051657511803   -0.72134551314971
C        -4.13745768234472    7.82731199157252   -1.31697084723063
H        -7.25472486384212    9.28271866423492   -3.15808419048012
H        -6.85852964011426    8.60729540583499   -1.55943834724120
H        -6.38909242447622    7.73121410624828   -3.04587922475309
H        -3.15290588651615   10.73173744322165   -2.71770519254268
H        -1.03206542614779   10.08116834251052   -1.65120968907454
H        -0.03471900689916    9.86804806685974    0.43543088028975
H         2.04795639933800    9.21429296756778    1.55261543907374
H         2.72491719041543    6.85514625283066    1.65085280445638
H         3.48331087142274    4.83376536200287    0.91780375317183
H         2.52789579009787   -1.48190826457539    0.56220942780526
H         4.92716835259204   -1.62787989741652    1.12177063636837
H         6.24478158171689    0.43290880790839    1.44359691505247
H         6.73225747245020    2.50598175206293    2.49487824902631
H         7.10094708731317    2.55331070736472    0.74439575948940
H         6.73591490251036    4.05686981576669    1.62208920693298
H        -0.76079274815433    5.77505835763907   -0.58286616872980
H        -2.90884843631219    6.54548040993222   -0.14840859187478
H        -4.99587117533223    7.18345902493226   -1.20950946959966
C        -1.14809275353808    1.40558397620717   -0.50165098216601
O        -2.18772919004343    1.73112159645059   -0.84908849703623
C         0.13607337569076   -0.81775881109366   -0.33040011684178
O        -0.11652606420154   -1.91000141289639   -0.56860978733174
C         1.04350841667283    1.07211183046760   -1.70380418319378
O         1.38285589168481    1.17128301802997   -2.79137937626946
C        -2.82706646538718   -0.62565394591663    4.11739317374796
N        -1.65058620929329   -0.02964693325353    3.54877139197239
C        -1.32260076938630    0.03057409159447    2.25109559840307
N        -0.17788191202495    0.64825953599286    2.02185274357030
C         0.28683751003356    1.02613068129513    3.26736357074124
C        -0.64582637055069    0.59960602388355    4.23983577223520
C        -0.46865582072850    0.82840440335834    5.59768338336860
C         0.67310519758399    1.49944096246050    5.97650961297700
C         1.60729867034368    1.92543352761634    5.02956753031423
C         1.43520151322305    1.69973013514141    3.68140638584772
H        -2.54604887922135   -1.37647002439057    4.85734185636323
H        -3.40976310756804   -1.10021899413367    3.33080415448276
H        -3.43801125469472    0.13627012747651    4.60488565194977
H        -1.95112149856975   -0.39495455896756    1.48733467476243
H        -1.19433216643388    0.49510096668296    6.32187957015225
H         0.85309178393136    1.70049205644139    7.02053010960579
H         2.49021507955392    2.44650114138055    5.36679414252212
H         2.17894625563996    2.03836346887857    2.97984945998119
