61
 energy: -99.140414696567 gnorm: 0.000448093575 xtb: 6.4.1 (afa7bdf)
Mn        0.50674569065920    0.86053303257295   -0.28827606696726
C         2.85096483695327   -1.72231272119341    0.04192138293012
C         3.47158498400106   -0.36761073387559    0.01412027295479
C         4.86210218243532   -0.24614428964857    0.02267472568538
C         5.45336468131842    1.00227734612270    0.00309483641178
C         4.63422147094699    2.11835115518050    0.00474326294790
C         3.25908389126486    1.92839893812783   -0.00062351501446
C         2.31762407677037    3.02883967244167    0.05283618166059
C         2.39539815420482    4.40630051619915    0.13365776841876
N         1.11468551265932    4.82213738933148    0.17857428117022
C         0.65009815527510    6.19276001976957    0.22654845579857
C        -0.23207394590207    6.43605656833728    1.45635704292564
C        -1.60908000913789    5.79098874943146    1.32990649298903
C        -2.30364045956668    6.25901590833746    0.05576103822964
C        -1.45978952794973    5.89780433267623   -1.16153028743788
C        -0.08643289640665    6.55468722067015   -1.07001253819460
N         0.29582558561936    3.79260655146663    0.13322309198835
N         0.99574015680112    2.71705578269674    0.05893516830764
N         2.68047143648734    0.70740237051701   -0.01525132978701
H         2.01564575965378   -1.74457886810212    0.74141154114395
H         3.57895343469901   -2.47405652082283    0.33371752366117
H         2.47532661423226   -1.97847966526025   -0.94938744822245
H         5.46769119361933   -1.13763736327387    0.04110737113731
H         6.52668497175695    1.10680484127840   -0.00243516982966
H         5.04030304992857    3.11648670749262    0.00845774748193
H         3.22863748815110    5.07604484902366    0.15513788582567
H         1.55469858202730    6.80640084298304    0.30790349851693
H         0.27920671816564    6.06917755129760    2.34996592368093
H        -0.34998523194271    7.51588429921538    1.56033328267432
H        -1.50994665997287    4.70469159410392    1.30678010174050
H        -2.20551111805370    6.05930249219144    2.20284494173707
H        -3.28354421335935    5.78868155375573   -0.02322139633849
H        -2.45161208666184    7.34026738314625    0.09310502589248
H        -1.95293279425228    6.23478962647085   -2.07367531003957
H        -1.35277681108069    4.81294501996474   -1.21799414924631
H         0.52760102390268    6.27352101753589   -1.92892318053637
H        -0.20355668471022    7.63940071581248   -1.08511770128017
C        -1.20243532260977    1.30717691371480   -0.55102137514336
O        -2.28807690936190    1.60135702314032   -0.75773324306717
C         0.05764688179697   -0.83666504368497   -0.62376686452780
O        -0.35966846852114   -1.87141705592274   -0.89211329475168
C         0.82265653529207    1.06152275152837   -2.03409215063833
O         1.01010409793674    1.17750845287773   -3.15722140870329
C        -2.11941882687775   -0.77698918947010    4.28024086447765
N        -1.05280369234694   -0.16419699349283    3.53871008327854
C        -0.95321596413637   -0.05583678592451    2.20689627605424
N         0.14843846114207    0.55301318441733    1.80587105727055
C         0.82965609952037    0.87252718711497    2.96534318152397
C         0.07177301314923    0.41818106185722    4.06803172601155
C         0.49101633804645    0.58437165316531    5.38111956587609
C         1.69647626816308    1.22150679281827    5.57806542334747
C         2.45855030774885    1.67665378682922    4.49935662993577
C         2.04645297751015    1.51303995198133    3.19491463869759
H        -1.74552153919234   -1.63847319477931    4.83656042425574
H        -2.89666713534394   -1.10592944018338    3.59384193659304
H        -2.54434257021454   -0.06154872915473    4.98583341407766
H        -1.71400529440428   -0.43886088675034    1.54831232951520
H        -0.10104477815365    0.22817019626605    6.20854979244215
H         2.06281768793269    1.37201136336969    6.58099221246913
H         3.39878978030247    2.16832975390654    4.69628076806009
H         2.66093584010226    1.87025136039908    2.38518625993872
