62
 energy: -104.518489960140 gnorm: 0.000268739274 xtb: 6.4.1 (afa7bdf)
Mn        0.51196633406582    0.61109608711401   -0.51289066707749
C         4.71938315636101   -0.55865131879495   -0.11731133221765
C         5.36887085204072    0.65628785989277   -0.27643530956536
C         4.60239321761136    1.79817933668041   -0.42923952775945
C         3.21716486043002    1.67887246917505   -0.42727650918269
C         2.30639939677440    2.80143421397432   -0.52698697341363
C         2.40670702910233    4.17875102330087   -0.57324838819090
N         1.13206949240208    4.61248525148269   -0.57655946388480
C         0.67621053305301    5.97878172617554   -0.52204019846119
C        -0.58197937763744    6.15181367329045   -1.38698619308275
C        -1.17582300112354    7.56638471172024   -1.26055944722023
C        -0.43096441501690    8.44080127267749   -0.24160617013098
C        -0.19326375198200    7.67509680230097    1.02067859397629
C        -0.51416043737435    8.15340712746468    2.28064263379418
C        -0.27449113321823    7.37982114259995    3.40382800613979
C         0.27892458620868    6.11852067750966    3.27238801999703
C         0.60078332968164    5.62859016342358    2.01752669261853
C         0.37027320969662    6.40576656753121    0.89526370162298
N         0.29365764375122    3.59841274833611   -0.52893400556634
N         0.97679227392352    2.51103105056116   -0.50104102280741
N         2.58349543618662    0.49479237330836   -0.28884858373635
C         3.33395474344898   -0.59367189959688   -0.13410195959185
H         5.27509581066699   -1.47267826150257    0.01264227497143
H         6.44577705970707    0.71349408715086   -0.27907948291613
H         5.05732657166377    2.76820991106197   -0.55077951444327
H         3.24828343081841    4.83773721715822   -0.60360928439373
H         1.48691597011656    6.60300789124502   -0.91945571755039
H        -0.32980021408948    5.93408326208800   -2.42591459201085
H        -1.30797737146632    5.40723712246522   -1.05958070094217
H        -1.16047312164529    8.06655887834786   -2.22852882481745
H        -2.21728377122975    7.48910804394130   -0.94905500052057
H         0.53093776298480    8.75128183946628   -0.66134708700997
H        -1.00802069640704    9.34307104558087   -0.04198163721944
H        -0.95179887998768    9.13493966220419    2.38185030909355
H        -0.52358237249769    7.76060017726102    4.38213236141483
H         0.46320634919835    5.50812019409694    4.14374966334666
H         1.02855116294091    4.63855182961315    1.93780909533910
H         2.81337733780111   -1.53535290986958   -0.01989531949209
C        -1.23304782578207    0.93496778862907   -0.76144812006004
O        -2.34129110831190    1.13805576072796   -0.95166632809555
C         0.23711213507765   -1.15500211155675   -0.46849719419722
O         0.03201230127413   -2.28193116738949   -0.47072705201966
C         0.72723753213066    0.50154512899052   -2.28406712090338
O         0.85392766825910    0.41387244508113   -3.41703060395804
C        -2.05523385830041   -0.10876008554177    4.31198170204994
N        -1.01023783957056    0.37936624586163    3.45602989472146
C        -0.84642759699129    0.11978653977073    2.15246261672908
N         0.21400257330938    0.70475137605439    1.62431528647748
C         0.80189129252729    1.39781731238746    2.66563557717024
C         0.02183288262924    1.20360661865101    3.82785759285388
C         0.34057599930969    1.78327872547118    5.04836425046031
C         1.47165633400465    2.56847821873233    5.09326569096277
C         2.26802269842814    2.75271734107004    3.96077114689270
C         1.95629645168463    2.17556277387005    2.74865289780288
H        -1.63100073855977   -0.70954501397465    5.11829731802357
H        -2.74167882748126   -0.72269418274951    3.73332442211252
H        -2.60383732211058    0.72710713774912    4.74826960766430
H        -1.52852821558948   -0.51238460221927    1.60991240155284
H        -0.26990781787593    1.62180484317680    5.92204338363329
H         1.75741247215748    3.04147599180782    6.01938566770673
H         3.15505205294470    3.36240556866492    4.04032621580176
H         2.60824275004054    2.31739529640656    1.90215030753789
