55
 energy: -96.314479934043 gnorm: 0.000722203599 xtb: 6.4.1 (afa7bdf)
Mn        0.51206792469311    0.95734316939413   -0.00897335563622
C         0.33160654031288    8.33009492650107   -2.68750586718566
C         1.45925608405422    7.91708800750872   -2.14299731873996
C         1.61622489709252    7.15531372290819   -0.85791501843090
C         0.30685133476596    6.87919789844394   -0.12497932284677
C         0.52118329360266    6.17033897853566    1.21681682473721
N         1.03257836061011    4.83931150735355    1.02423053781638
C         2.31516530946242    4.43207521063937    0.99426625621533
C         2.24594385678801    3.08183062469188    0.70202191951195
C         3.17725150157683    1.98493092722291    0.55177332758816
C         4.55863669730729    2.10556503701923    0.67948051725631
C         5.34552455183301    0.97571271441124    0.57203964735585
C         4.71119674888891   -0.24169299210644    0.34663181859982
Br        5.70600772680944   -1.84684852413720    0.21691717326403
C         3.32661665474781   -0.28256702360852    0.21324101422421
N         2.56865435950357    0.80265984966056    0.30725254694738
N         0.92328712566251    2.77926794300142    0.57779705747657
N         0.21794787223915    3.83485825711087    0.77105359189679
H        -0.63525126481361    8.15733369957116   -2.24765157394758
H         0.33269682259925    8.87483121226641   -3.61517203876582
H         2.39979948757809    8.12564660316333   -2.63633217822265
H         2.28454769724810    7.72866079775884   -0.20628287712739
H         2.12339422840800    6.21207311444499   -1.09246588401227
H        -0.19746354416987    7.82359877028625    0.07841627778496
H        -0.34779294561279    6.26692912890447   -0.74729309575301
H        -0.43346493558099    6.07625357191308    1.73823650238620
H         1.22545857633032    6.72730727645847    1.83841900801791
H         3.14203004748643    5.08508545154835    1.17686601620952
H         5.00098685973977    3.07190728242690    0.86123504404451
H         6.41863933314652    1.02989693232230    0.66328766721554
H         2.83300230028416   -1.22681140543050    0.02481134186477
C        -1.22556983435241    1.32515656267708   -0.25907677021714
O        -2.32381239302728    1.56973047713095   -0.45415541020228
C         0.28781421356052   -0.74420425149273   -0.51797485070778
O         0.11757805589016   -1.82058703156301   -0.86650990909420
C         0.82312574297259    1.39197814290074   -1.71603608312924
O         1.00878593756446    1.65817100184962   -2.81178341179074
C        -2.18833769767579   -1.36402650756513    4.20347075446431
N        -1.12877366359717   -0.61040418312701    3.59327145754601
C        -0.97138209431752   -0.34732931822863    2.29011638414059
N         0.10339089375144    0.37382477070761    2.02102688098930
C         0.70354102536250    0.60162990483514    3.24522224964223
C        -0.07617639767669   -0.01996289660182    4.24652735601251
C         0.26053364258538    0.02587947956082    5.59271327291320
C         1.40693836386672    0.71143774270405    5.92929784570142
C         2.19254323080329    1.32763878895579    4.95252685565430
C         1.86153701962638    1.28407743142325    3.61577574872203
H        -1.78283006980703   -2.24269356907239    4.70843238826567
H        -2.89302115415514   -1.68513836123392    3.43917439960118
H        -2.71175032359953   -0.74824654622447    4.93683563738945
H        -1.66866610543224   -0.70334219008633    1.55091156664722
H        -0.34884016584790   -0.45606082862043    6.33989943939885
H         1.70835406649206    0.77364794138419    6.96264060173702
H         3.08626626035339    1.85075642125021    5.25610195034180
H         2.49535794405869    1.76508934824768    2.88919608624105
