75
 energy: -122.379364721370 gnorm: 0.000422429890 xtb: 6.4.1 (afa7bdf)
Mn        0.50315905977908    0.69505338811503   -0.44362414261144
C         2.85436144882247   -1.80492260701260    0.29238726935345
C         3.46472740872240   -0.47444103269435    0.01133286553515
C         4.85436281588549   -0.35672575554681   -0.05227539961832
C         5.44020701703086    0.87013561274074   -0.29637067464656
C         4.61758520859982    1.97475747959996   -0.43831255368876
C         3.24404011934172    1.78871396339313   -0.36565389907124
C         2.30382769529323    2.88947224483916   -0.43950538809225
C         2.39867002324559    4.26539760446738   -0.53036886351051
N         1.12307614941698    4.69605574689336   -0.48738888679258
C         0.66919507933088    6.05253943644695   -0.46412861714317
C         0.81469708328022    6.64845435030707    0.95585232068820
C        -0.15241880025391    6.01165043551790    1.96747287287819
C        -0.68942291191706    7.19783622822282    2.77345600712290
C        -0.70720579511959    8.32406596641618    1.74460125525774
N         0.46858794122882    8.04757374680976    0.94193291033855
C         1.28049589033608    9.03525574260399    0.47558438298356
O         1.02834043974016   10.20558626684007    0.59364428515539
O         2.35733669714437    8.49520035305680   -0.13098219934922
C         3.38057612063716    9.35825219774443   -0.70401871142911
C         4.40944014647643    8.37630303754267   -1.26860486207827
C         2.78793325003706   10.21512392544136   -1.81972270777334
C         4.00945645579197   10.22622021807539    0.38310037155476
N         0.29040714640988    3.68100856089047   -0.36821834808264
N         0.97949701537015    2.59571594821154   -0.34165775029594
N         2.66899640398913    0.58251052142778   -0.16872399783234
H         1.98791822904998   -1.69865993319874    0.94429126202399
H         3.57662544309846   -2.46606647406951    0.76355258469742
H         2.52914111050325   -2.26893804714478   -0.63930958395224
H         5.46275289346919   -1.23544631011846    0.08793413920480
H         6.51203159474483    0.96931859344526   -0.36163015122465
H         5.02008290590358    2.96001321062340   -0.60665308976196
H         3.23061119139518    4.92945838645911   -0.63150273625712
H         1.26879345556288    6.64832160761110   -1.15498490843912
H        -0.37792739804775    6.06788980709503   -0.77004410681312
H         1.86245326985699    6.53257332063127    1.26583973147904
H        -0.96807092083910    5.51605994287224    1.43914273267108
H         0.34334796587705    5.27399823549284    2.59765055216798
H        -0.00340101407280    7.44543838378023    3.58349497360296
H        -1.67240803823386    7.00350293295498    3.19400557707319
H        -1.60672315340249    8.27830053828105    1.12076406023369
H        -0.62853974549653    9.32223517011650    2.17400616958801
H         3.95692416471559    7.75357853162479   -2.03741818035451
H         5.23667399302204    8.92443290243552   -1.70765902237622
H         4.79390920681170    7.73866019574825   -0.47555807569072
H         2.04952756537605   10.90083617173577   -1.41436033420694
H         3.57760955344327   10.78959589315474   -2.29450574229372
H         2.31090266382433    9.58692779682195   -2.56972640951532
H         4.83215324925786   10.79693625087224   -0.03695868808916
H         3.27290127033480   10.91603513182400    0.78490891028487
H         4.38895473424287    9.60440098769811    1.19176309765916
C        -1.22728806702236    1.06093809948293   -0.70785213197298
O        -2.33298572196541    1.27228082643951   -0.90378951370990
C         0.09288936759861   -1.03542302616193   -0.60397294244603
O        -0.28755457145407   -2.10272690479581   -0.78752972034298
C         0.78717188218187    0.69322226734328   -2.20733387944708
O         0.95530596577024    0.67020702680797   -3.33869919333734
C        -1.91917197816842   -0.56832158919422    4.35014072023418
N        -0.93738404750129    0.05589711999105    3.50776968597703
C        -0.82427008825788   -0.05669880388815    2.17739799679761
N         0.18474528898559    0.63011074237936    1.67162414198997
C         0.78453376178305    1.24486724494930    2.75405898738117
C         0.07376952722960    0.88656549523692    3.92159265424540
C         0.42864000095174    1.34661661185712    5.18258959019266
C         1.52180669615129    2.18129984097460    5.26018752763973
C         2.24154886326640    2.53810187769674    4.11718546614509
C         1.89404380875577    2.08178996680436    2.86443919387618
H        -1.42818081851250   -1.19037710568181    5.10034672605838
H        -2.57498503932882   -1.19018609507854    3.74465475481497
H        -2.51577185174132    0.19029610089446    4.85942430620793
H        -1.50442131047926   -0.65835827419772    1.59876164691728
H        -0.12698512213992    1.06090023191154    6.06097500545906
H         1.83402815904325    2.56407003962961    6.21868250849708
H         3.09800172639625    3.18634257536830    4.22253740682287
H         2.47967126934223    2.36322592420362    2.00478876146163
