60
 energy: -107.332354547295 gnorm: 0.000390809186 xtb: 6.4.1 (afa7bdf)
Mn        0.42826765221702    0.81906321659523   -0.29196221427824
C        -3.60462745446444    6.68387352679608   -0.10850464258252
O        -2.71277616402803    7.77246294312145   -0.00116843414393
C        -1.38966532648918    7.52892249405928    0.06012277828208
C        -0.55298418869102    8.64725706209689    0.14554366070735
C         0.81336121626157    8.50520116077595    0.21154010276470
C         1.41760292485985    7.24749695653513    0.19653728231097
O         2.76522318790538    7.05451907666691    0.26065769821319
C         3.61182927016285    8.18563962965619    0.32981405342549
C         0.57958421917732    6.12554550851135    0.11164747349413
N         1.07342335241917    4.80980994720137    0.08076507645384
C         2.34685108499993    4.35762582067860    0.06143870654383
C         2.23156150092491    2.98183634984549    0.00442746055109
C         3.13566124032581    1.85141742084837   -0.02342701215235
C         4.52141363937714    1.96291994036386    0.02364818352500
C         5.28216804892873    0.80773272980493    0.03438881846936
C         4.62795297295553   -0.41503372518748    0.00590628704328
C         3.24364849893822   -0.44081100823990   -0.05129459746175
N         2.49860781922344    0.66176980427310   -0.07012247836342
N         0.90186469861450    2.69774437743528   -0.00153234194383
N         0.22553867535111    3.78767026514282    0.04515048101078
C        -0.80712510130981    6.27072937569056    0.04448652512300
H        -3.42337813413017    6.10694891143091   -1.01979131401114
H        -4.59828456409503    7.12512294344921   -0.15209378450567
H        -3.53767211704325    6.02544215315282    0.76255089820269
H        -1.00324697468689    9.62614498964802    0.15605786459200
H         1.42076913415379    9.39213088801498    0.27441132892612
H         3.42558386855191    8.76827905346970    1.23518376788939
H         4.62495979129016    7.78797156685075    0.36034588619224
H         3.50046084063266    8.82102345086143   -0.55199975260597
H         3.19581369090626    5.00331816042080    0.07915848319006
H         4.97840836939728    2.93908650285457    0.05073211457861
H         6.35896861010095    0.85936350646586    0.06607690314995
H         5.17942221757098   -1.34064793007570    0.02067203274239
H         2.71940421068931   -1.38685702472436   -0.08491162770603
H        -1.39789418130746    5.37310290626834   -0.02429146223405
C        -1.30970218215952    1.19874569081349   -0.49135733301206
O        -2.41042790048324    1.46154474690064   -0.65673009864483
C         0.14735096597024   -0.92948671482760   -0.53532348585976
O        -0.05863158751406   -2.04173295421998   -0.71749542673503
C         0.65083049780488    0.99837495979633   -2.05616901701695
O         0.78148780250189    1.10041849625036   -3.18766793004321
C        -1.99896892213079   -0.90641729542627    4.35264049133418
N        -0.98085304390003   -0.24431255512643    3.58611231287551
C        -0.91727060719108   -0.13269560116100    2.25269763501025
N         0.14059801998756    0.53394793899680    1.82655208048916
C         0.82980306827220    0.89148198738684    2.96999622581106
C         0.12244458957117    0.39819123913684    4.08957638633647
C         0.55985394790757    0.58754841799833    5.39346976590945
C         1.73297096685128    1.28893868027524    5.56505621108739
C         2.44419477043815    1.78541757712160    4.47018390742228
C         2.01327459408100    1.59939769145734    3.17483107720890
H        -1.56325649781382   -1.72202419679652    4.93209188159940
H        -2.75430452965401   -1.30972486578417    3.68175142011224
H        -2.47008685508970   -0.20125974102102    5.03921598515635
H        -1.67105718473560   -0.55711910205302    1.61154961047311
H         0.00483500163590    0.20098122806886    6.23289600882406
H         2.11212844025153    1.45993661199353    6.55992204676363
H         3.35907190712560    2.32983484484189    4.64665395251874
H         2.58858620850028    1.99446396465849    2.35420908698395
