55
 energy: -99.596199071280 gnorm: 0.000941236238 xtb: 6.4.1 (afa7bdf)
Mn        0.48445454730270    0.90562617465228   -0.13241252150712
Br        5.75080540180098   -1.76896895598352   -0.16520192127044
C         4.72426786606611   -0.18903279677287    0.01475769617987
C         5.33886925501299    1.04507772377512    0.20044176717102
C         4.53060356982377    2.15528392175914    0.34713093351179
C         3.14795322997840    1.99913873396943    0.29546137809178
C         2.19934032211816    3.07448369284363    0.48959014931805
C         2.25190367610220    4.42311805403337    0.78963567099360
N         0.96232441335911    4.79960516419679    0.87521013539047
C         0.44564195303586    6.12147658364586    1.13433387097929
C         1.05473474715545    7.11891192634542    0.17880210698208
C         0.82748753473265    6.98773306070560   -1.18631375491897
C         1.39264576800884    7.88564308307928   -2.07357632527722
C         2.18504863781217    8.92035215556099   -1.60322816174946
C         2.41291045569326    9.05455053139735   -0.24442401426266
C         1.85399726408816    8.15268970766961    0.64530987615387
N         0.15994637301733    3.78171972660968    0.64697029436991
N         0.88006825587373    2.74252171249928    0.41789857217615
N         2.55713351765349    0.80078129285453    0.08978043316948
C         3.33603954919800   -0.26570171126737   -0.04135292776840
H         6.41363964790790    1.12675152594030    0.23160593371032
H         4.95634111298590    3.13402973081798    0.49957921870262
H         3.06556564851237    5.10268807510774    0.92940512293255
H         0.66710031042534    6.39750811229428    2.16988938310576
H        -0.63812990853708    6.05828873526266    1.00635380601853
H         0.20071694044844    6.18628208456630   -1.55167236245528
H         1.20937634652228    7.78092075341195   -3.13163813159412
H         2.62072529627279    9.62372383944634   -2.29541146522041
H         3.02559277071646    9.86172359562121    0.12601414992664
H         2.03022370949185    8.26217710903200    1.70584599784603
H         2.85706672794821   -1.22315535949746   -0.19799556794955
C        -1.26882357259418    1.23419901223815   -0.31999646701075
O        -2.37874220222835    1.45192100654657   -0.47897986144721
C         0.27445429310514   -0.81058179033744   -0.59540424665452
O         0.11321589017619   -1.89908204509890   -0.90918373494445
C         0.71336101871083    1.31535568155687   -1.85828029893890
O         0.85352920178035    1.56097943817411   -2.96558787171989
C        -2.03374012952999   -1.31316021567022    4.24460926775443
N        -1.00058965517227   -0.57562802526463    3.57255926160560
C        -0.88937597012533   -0.35707130766816    2.25647465796247
N         0.17064320625980    0.36032105365366    1.92594637159042
C         0.81186412511281    0.63204902001140    3.12009034111734
C         0.07003201668230    0.04238354110014    4.16846511685924
C         0.45196862338245    0.13609676208172    5.50001017078673
C         1.60585888245473    0.83701726924348    5.77347051195792
C         2.35594767801591    1.41987241241194    4.74943667543044
C         1.98026321163412    1.32840506256421    3.42696041791025
H        -1.60762066825232   -2.17790277333197    4.75640944157558
H        -2.76785749888843   -1.65446151754078    3.51818887568205
H        -2.52819805993197   -0.67807457499250    4.98125174254215
H        -1.60880337930114   -0.74263896377086    1.55422051831240
H        -0.12927041111382   -0.32225197386685    6.28356276153100
H         1.94179269419418    0.93632099897850    6.79319831141730
H         3.25829050791870    1.95445366361606    5.00375148512292
H         2.58958725719439    1.78222928178857    2.66286720878798
