56
 energy: -107.887143198059 gnorm: 0.000557802349 xtb: 6.4.1 (afa7bdf)
Mn        0.50345935305270    0.78142598989761   -0.29387393627090
C         3.08607638193865    9.52149413845030    0.05600291924818
O         1.67915636020823    9.59752902592676    0.10947802891907
C         0.95442769340471    8.47048246336924    0.12087968187183
C         1.46321493953385    7.17617450548673    0.10094050853050
C         0.59566755456300    6.08458025144421    0.11454599451908
N         1.09686400232907    4.77107992475760    0.08626175697663
C         2.37792455504864    4.33670902799233    0.09681347669358
C         2.28369973938537    2.95970137528354    0.03394628827663
C         3.19783910339125    1.83878231848301    0.02732463241440
C         4.58400851486725    1.95404961657235    0.09601637360324
C         5.35391890256793    0.80824432688185    0.13495778973360
C         4.69883672997429   -0.41874736038611    0.11067113561867
Br        5.67035682361459   -2.04121415449734    0.19253730963445
C         3.31036193292930   -0.45650382478908    0.02497580258324
N         2.56862936184785    0.64264874796198   -0.02150727680349
N         0.95573349604751    2.65957293322038   -0.00533339264703
N         0.26587077766829    3.73959556523958    0.02731480795867
C        -0.78165990094248    6.25783961814115    0.14570785951673
C        -1.29945785936830    7.54095152008127    0.16630380320433
C        -0.44585185168367    8.62260889475726    0.15559456796704
F        -0.94981273586561    9.85824976042162    0.17652461395929
H         3.42449207212516    9.02487695220835   -0.85830846344899
H         3.43157070379532   10.55310704594035    0.05263974837988
H         3.49233554745801    9.00824788973290    0.93286540786290
H         2.52940758872098    7.02958471223104    0.06735795289761
H         3.23038629690718    4.97817362651578    0.14284950217643
H         5.04362726748366    2.92902756817788    0.11995191619847
H         6.42986509925148    0.85796116411600    0.18620834480348
H         2.80008206551367   -1.41004048880422   -0.00682575492739
H        -1.42970939973644    5.39796537911240    0.14878574182087
H        -2.36325526509141    7.71191236230510    0.18828606858717
C        -1.23289027291574    1.15024039141461   -0.55143962091470
O        -2.32811332184362    1.40115352199844   -0.75523705517555
C         0.23539099724036   -0.97380975134936   -0.52446500621796
O         0.03791888556808   -2.08772338261230   -0.69535390699587
C         0.77065268249000    0.93621272147401   -2.05611186589187
O         0.93255313573403    1.01506246767272   -3.18430949225456
C        -2.07858376834175   -0.87546451819614    4.29003531412794
N        -1.02336116518382   -0.24613910633460    3.54564828676954
C        -0.93951414345641   -0.11661105340303    2.21594875885607
N         0.15338683875205    0.50850838476133    1.81219672363210
C         0.84458417059517    0.81542642547243    2.96940517472003
C         0.10266536267561    0.33530617737265    4.07216346785680
C         0.53371456476128    0.47986135463138    5.38407792328295
C         1.73547617591752    1.12326244309771    5.58172796641800
C         2.48011838646187    1.60844309246428    4.50406417521235
C         2.05535567485228    1.46702822785110    3.20097410422582
H        -1.70116436158602   -1.75965873196474    4.80631071762234
H        -2.87526192582545   -1.17181291199385    3.61173221417268
H        -2.47830436371142   -0.18121812434539    5.03007142819631
H        -1.70384242570712   -0.49597376904519    1.55923381848129
H        -0.04712565434098    0.10218039915002    6.20984853567624
H         2.11190881070933    1.25658182551951    6.58324761169800
H         3.41671400465467    2.10724472956957    4.70052515579354
H         2.65635986153127    1.85413531042809    2.39464236101967
