52
 energy: -96.437379603525 gnorm: 0.000987932991 xtb: 6.4.1 (afa7bdf)
Mn        0.46669445489839    0.72383063153906   -0.29308505677647
Br       -1.15159547071499   10.34639602399939    0.27873157044728
C        -0.45110540760112    8.58639155633236    0.22558595146551
C        -1.29236803649213    7.51839899085198   -0.06162104623396
C        -0.77911380479907    6.23868616350479   -0.10043766640782
C         0.57555355542392    6.02670947501103    0.14895719085948
N         1.06480821961221    4.71118523694903    0.10014972001971
C         2.34651007225630    4.27678321375018    0.08083213505445
C         2.24884675102179    2.90183044806567    0.01147871563850
C         3.16368093627197    1.77805367992929   -0.01456656557576
C         4.54798632901403    1.89811320136292    0.03485333851037
C         5.31590770696762    0.74684220023613    0.04902002984541
C         4.66874599851937   -0.47922077855477    0.02181678945636
C         3.28421059479036   -0.51328938154193   -0.03703009387583
N         2.53284412394839    0.58477764185124   -0.05945433579346
N         0.92004037636321    2.60196632921369   -0.00310644429183
N         0.23036237944202    3.68152802314083    0.05008573038860
C         1.41434560561153    7.09832426549162    0.44147559743838
C         0.89882822642291    8.37899068863466    0.47729399464563
H        -2.33905848325520    7.69090325362774   -0.25522350723042
H        -1.41375793410074    5.39631352800061   -0.32427470949267
H         3.19604388861030    4.92419352156335    0.09312684069376
H         5.00207696373437    2.87570728628232    0.06104297158791
H         6.39220368754186    0.80538621664926    0.08283818335305
H         5.22524161029233   -1.40179214390109    0.03905670473583
H         2.76572454751120   -1.46250531951417   -0.06915118022012
H         2.46122486153812    6.94977429902656    0.65260816037240
H         1.54083066691624    9.21571691523580    0.70246606450229
C        -1.27742372606402    1.07711732459001   -0.50877328685316
O        -2.38150489074080    1.31365331967574   -0.68302925937599
C         0.20254592624284   -1.02894397688070   -0.53549525433955
O         0.00648070582415   -2.14213135723673   -0.71742064319623
C         0.70330238508818    0.89135940078339   -2.05776333424065
O         0.84139394608280    0.98738056230933   -3.18837895748361
C        -2.01858219356216   -0.94064016216456    4.34209342459459
N        -0.99063720200838   -0.29132447740503    3.57756722190453
C        -0.90191638158640   -0.21426088945998    2.24379557659901
N         0.16034117762884    0.44872098642528    1.82071899421568
C         0.82601493539021    0.83826899921005    2.96788845703778
C         0.09860717719323    0.37102254437934    4.08569654684206
C         0.50749149887946    0.59822802234682    5.39292048380305
C         1.67296964398966    1.31072176505299    5.57018420658349
C         2.40625760625257    1.77825861844642    4.47715226782217
C         2.00382910482997    1.55404204092484    3.17860567244781
H        -1.59285405050448   -1.75473703981371    4.93077109992052
H        -2.77256944551983   -1.34345764467019    3.66977354329802
H        -2.48856685348592   -0.22673815717599    5.01977541003319
H        -1.64017049567978   -0.66029714778056    1.59919650867980
H        -0.06277391267045    0.23064186814712    6.23054226831607
H         2.03017555117221    1.51118626444219    6.56756587325932
H         3.31638837581589    2.32919377101690    4.65782268673199
H         2.59894169772474    1.92397019807044    2.36015241032774
