66
 energy: -111.761513746215 gnorm: 0.000989084527 xtb: 6.4.1 (afa7bdf)
Mn        0.14278171075158    0.82344389311178   -0.50240892880365
C         6.09016290647662    3.49680328991702   -1.06909145408842
O         4.71104131885011    3.28576773610476   -0.81938308672685
C         4.22784549547074    2.03236138342903   -0.88992636615939
C         4.96799757543780    0.88287034698923   -1.15688893451101
C         4.31478280750543   -0.33777731529744   -1.17447364382926
C         2.95095995355449   -0.39818630776876   -0.94214583563197
N         2.22327974882038    0.68906555269902   -0.69574000755250
C         2.84525283576600    1.88001654900219   -0.66632831170353
C         1.96701233636668    2.98283921295829   -0.34321856109083
C         2.10550621410533    4.32814734024707   -0.05971363451753
N         0.86145248398727    4.73464781640625    0.25360730789835
C         0.42504617854943    6.05903990732180    0.65484420086064
C         0.10117882183732    6.91144181975853   -0.57546692662190
C         1.37228379574647    7.45159429740464   -1.21672754999398
C         2.09098680914505    8.36373780269039   -0.22807297539027
C         2.29172083172576    7.71549312820362    1.11232546789885
C         3.27632909197320    8.19509515112220    1.97138235316857
C         3.47544853479151    7.63278139675643    3.21716179698086
C         2.68777317096402    6.56957761597767    3.62991157075577
C         1.70364827780829    6.08674982368487    2.79052256739467
C         1.49485496626362    6.65692481138646    1.53789642043631
N         0.00734836180687    3.73679529907924    0.17806590580601
N         0.65082998249746    2.68140067290161   -0.17561964716481
H         6.24227178824777    4.56911366078922   -0.96934800284779
H         6.71174070360895    2.97358452690233   -0.33821381673925
H         6.36246483206881    3.18511328432231   -2.08018341098893
H         6.02768804995340    0.93211647837039   -1.34569261804916
H         4.86375544664045   -1.24376530277919   -1.37242418223165
H         2.43328300464903   -1.34680642833752   -0.95781975479996
H         2.96318306151872    4.96434368796492   -0.04073320336397
H        -0.49409806295819    5.89228719463768    1.22836022001879
H        -0.47631619600944    6.31517353026667   -1.28451218883756
H        -0.52195500616664    7.74665091918291   -0.25327529563219
H         1.12053207616636    8.01091865156678   -2.11798816184847
H         2.02462044266788    6.62702515716815   -1.51448444366350
H         3.05589878942353    8.67614916411438   -0.63178397035203
H         1.49603731500868    9.27076569498641   -0.08197262483336
H         3.89122115370993    9.02296657762542    1.65075287442430
H         4.24320187878724    8.02223854290772    3.86767280879683
H         2.83558218289519    6.12494175711747    4.60184573839740
H         1.08096658260382    5.26035293965297    3.10684886375021
C        -1.61005535854936    1.16702022811726   -0.36714766811435
O        -2.73102868246558    1.38512732262438   -0.31390319666931
C        -0.16140524831482   -0.92037177089829   -0.75076958629024
O        -0.38973718651669   -2.02887293538016   -0.92938600719127
C         0.03971633207279    1.07297487235229   -2.26893463384345
O        -0.04038589834560    1.22007937772298   -3.40018808148855
C        -1.56854180063306   -0.82568057030057    4.47494513559191
N        -0.66508304990949   -0.18808296713561    3.55851341533442
C        -0.73810928341425   -0.18468514663731    2.22083282653120
N         0.23479637355044    0.49233522539093    1.63812757809597
C         1.01771682198993    0.96695926816986    2.67395136150184
C         0.44540722295488    0.54424965024872    3.89526322136536
C         0.99106870377926    0.86824056448894    5.13008793087948
C         2.13724515734600    1.63250774061472    5.12803888509494
C         2.72620290792411    2.04553754433808    3.93081665539046
C         2.19094497578695    1.72012324270920    2.70350731867936
H        -1.04052753993760   -1.57928718520112    5.06180474379848
H        -2.37180238482616   -1.30427858102232    3.91916933771933
H        -1.99524310819837   -0.08676878070377    5.15492186211801
H        -1.52617460026811   -0.69601830250919    1.69483031716590
H         0.53691693790752    0.53325917982732    6.04866628897472
H         2.59518268149145    1.91091856830296    6.06379817735992
H         3.63080887914542    2.63307210244889    3.96891511788789
H         2.68653489444878    2.03715809188507    1.80140744149193
