84
 energy: -148.984122330356 gnorm: 0.000512641327 xtb: 6.4.1 (afa7bdf)
Mn       -0.53086349638283    0.54216864987455   -0.22552864769031
C         1.60985309678493   -2.13364029237047    0.53962966431781
C         2.22131593560453   -1.14638957938700   -0.39379152374248
C         3.46506070057598   -1.41357153617546   -0.96891281886071
C         4.04739911831287   -0.50061547628623   -1.82676341829446
C         3.38215991734954    0.68878395204635   -2.07416554920461
C         2.14861089031842    0.89148660093723   -1.47246785911645
C         1.39410844026451    2.12163316557671   -1.61350701276255
C         1.62216730233354    3.38494992617388   -2.12758199620012
N         0.51791071355448    4.08331616777502   -1.80506417490067
C         0.20637285193778    5.46818270928111   -2.05702457570686
C        -1.34391452264370    5.48378622041805   -2.25811196229211
O        -1.82836222862004    5.27501909715407   -3.33872251770630
N        -2.01561646342271    5.68308909359437   -1.11477943147919
C        -3.43020385494879    5.53688217651328   -0.99044824364801
C        -4.18390352552858    6.80488844547974   -0.51536737948211
O        -4.30442308140279    7.92662263751224   -0.89540900847351
N        -4.66924494249019    6.14100254320058    0.59160248894740
C        -3.90807660060024    4.94046767436749    0.35544217684644
S        -2.69191135933203    4.85264280543147    1.72223915074651
C        -3.34548552479453    6.39137071576233    2.56349569810743
C        -3.37756517514552    6.16740475475352    4.06601846432504
C        -2.43679521642768    7.56270733010511    2.20944113562580
C        -4.76006838261234    6.60677924500359    1.94189219021978
C        -5.85940346588151    5.88760430742542    2.72225020852077
O        -6.38606821394754    6.34426476789870    3.69537916150763
O        -6.15541464321660    4.69670201912193    2.20790857207929
C         0.67384248209349    6.36906390225997   -0.94044682202090
C         0.97667751941295    7.69538053594498   -1.22615416544107
C         1.36107407406147    8.55583413032190   -0.21374838359776
C         1.45336734949251    8.09936745479403    1.09105680506105
C         1.15334238282307    6.77967911770436    1.38111155660678
C         0.75864049173731    5.91651854274399    0.37291821935047
N        -0.33696208545967    3.32817607263730   -1.14296595771681
N         0.17099204553716    2.15607653114226   -1.02595991600775
N         1.56375884186988   -0.01484474393618   -0.65765395909158
H         1.16706982767745   -1.62283848482535    1.39468064658110
H         0.82404482641087   -2.69035177007533    0.02755371529994
H         2.35295180977715   -2.84307065849626    0.89274372441508
H         3.96245230186173   -2.34156084849647   -0.73791404041640
H         5.00207211626867   -0.70293297873820   -2.28565596459182
H         3.79666105547757    1.44431162830662   -2.72105388505600
H         2.44157308007137    3.80732984461881   -2.66892235260731
H         0.66375963262841    5.76051666712795   -3.00771496932309
H        -1.50467131988362    5.80501875714846   -0.24701688620890
H        -3.82642865628957    5.06884644988396   -1.89353524630394
H        -4.47324427825196    4.01029485467833    0.33033961282408
H        -2.36402370736104    6.15939385013583    4.46129440879675
H        -3.86479499534902    5.22743589579215    4.31573236631800
H        -3.93041635753248    6.97221320768505    4.54565785920203
H        -2.47964805711932    7.79844961743995    1.14757903276696
H        -2.74215193393835    8.44621467043565    2.76631868967952
H        -1.40485749496670    7.33151378618202    2.46668934478779
H        -4.99799774596354    7.67489546514530    1.94514066121991
H        -6.89116643115844    4.28628898238451    2.69227093484168
H         0.90434743184207    8.05275046533033   -2.24208088689300
H         1.59155851642242    9.58367971083066   -0.44514984467294
H         1.75835381944354    8.77068268362265    1.87850601231529
H         1.22678767742901    6.41042506701638    2.39318044060759
H         0.52076547575011    4.89148054683208    0.62382078396467
C        -2.17432856504135    1.23362338344546   -0.18040181791761
O        -3.22441065416089    1.68894562189583   -0.18519685798654
C        -1.15366621355882   -0.92055348821664    0.59341829554657
O        -1.68365455262476   -1.80432766493322    1.09776627162192
C        -0.90040367112809   -0.21811628347820   -1.80156339800794
O        -1.14937280525673   -0.72413546493400   -2.79604500771915
C        -1.56995116825978    2.68198917714786    4.72178963588885
N        -0.75046295833917    2.37102397980869    3.58568564314152
C        -1.04675607198235    1.53458393030097    2.58351787046310
N        -0.10023325887519    1.45175233745685    1.66576395279717
C         0.90483639899938    2.29177307162700    2.10413362746112
C         0.48912027335666    2.89122341129235    3.31433884325788
C         1.27943751732441    3.80190639667128    4.00254566980955
C         2.51046662924252    4.10092092322889    3.45965422866833
C         2.94781587147470    3.49528429740525    2.27906130049068
C         2.16886636221495    2.58752759629834    1.59504276698075
H        -1.03004481112810    2.46700155971101    5.64520079750256
H        -2.47594806578610    2.08132204067853    4.68926341254337
H        -1.84090624164058    3.73818973098292    4.70564451051096
H        -1.97189353411920    0.98508640249938    2.55680952570861
H         0.94554078480645    4.24828811749772    4.92556586237899
H         3.15905620117218    4.80305909137446    3.95945598370999
H         3.92768831279057    3.74042131652845    1.89962954176129
H         2.54655725602624    2.10973944042474    0.70547601486200
