56
 energy: -104.317483417847 gnorm: 0.000346925893 xtb: 6.4.1 (afa7bdf)
Mn        0.39797223881575    0.81458472508928   -0.26212026337329
C        -3.47486551425552    6.95851715678544   -0.31140036586530
O        -2.51804600108012    7.97135694876325   -0.08393390050086
C        -1.23270484244233    7.63311147940331    0.07154531570263
C        -0.72233611346288    6.34131740924905    0.02889511863083
C         0.64202692125942    6.11696567940886    0.20884757153622
N         1.09370070631781    4.78709299146653    0.15054754955269
C         2.36327286501830    4.32253136281059    0.10780697089132
C         2.23256558640177    2.94997721157908    0.03744596066939
C         3.12197874256831    1.80696084266223   -0.01087086734044
C         4.50903017868022    1.89773464328948    0.02540924412642
C         5.25275998949832    0.73085177603349    0.01852041056867
C         4.57987262451250   -0.48120362875918   -0.01585229799961
C         3.19451698638279   -0.48572725625379   -0.06124811071013
N         2.46615154592830    0.62795004908693   -0.06321533039608
N         0.89777717143576    2.68138114707019    0.04588864891503
N         0.23489697688647    3.77811028404979    0.11366739162895
C         1.52297897242747    7.16401024263871    0.43693194635152
C         1.02666161823126    8.45699972670253    0.47710095748103
C        -0.32017468787417    8.68331744974938    0.29706131491594
F        -0.78344262745949    9.93500512485183    0.33944294665923
H        -3.26876148083159    6.41638466085598   -1.23832305988640
H        -4.42776583751246    7.47611456546649   -0.39908491936360
H        -3.51718255264131    6.25633063262230    0.52597063786480
H        -1.36272950865571    5.49291036088720   -0.14531619028016
H         3.22800733500225    4.94923513422522    0.10912789848201
H         4.98322667101207    2.86551162671608    0.05786098913162
H         6.33034350949575    0.76657779491283    0.04173514053084
H         5.11729629197809   -1.41517659926305   -0.01465990260329
H         2.65595889686071   -1.42350535726991   -0.09959320014806
H         2.57570563811986    6.99907845253464    0.59154478723875
H         1.68021513095125    9.29650254667769    0.64953398225262
C        -1.34028197777867    1.21245265294615   -0.42929540310365
O        -2.44165928350509    1.48212491744388   -0.57438857541519
C         0.09349543005842   -0.92633313326206   -0.53818661407667
O        -0.12926946734161   -2.03038478037720   -0.74471791143150
C         0.59734711588860    1.01806216593928   -2.02735512150961
O         0.70816105310254    1.13557630818524   -3.15908458892813
C        -1.96664458395929   -1.00544297269371    4.37772334571787
N        -0.96573797469083   -0.31791957883702    3.61069265743835
C        -0.91118450594839   -0.19601502772126    2.27829737997955
N         0.13177143496254    0.49451241454514    1.85149859617813
C         0.81936705815434    0.85754696433720    2.99433148918743
C         0.12650177405671    0.34367438223424    4.11363731587188
C         0.56474183073683    0.53497192523457    5.41705927299387
C         1.72387441795900    1.25927708343119    5.58849623139633
C         2.42194492983916    1.77452202331984    4.49377934044334
C         1.99031870788942    1.58618021908120    3.19896871365468
H        -1.50954849365050   -1.80900662812792    4.95773540348770
H        -2.71133978940015   -1.42873913937921    3.70701608794566
H        -2.45584182767837   -0.31204684444284    5.06391182070596
H        -1.65999811976371   -0.63022550401163    1.63778923939281
H         0.02062850477534    0.13295210487209    6.25628882397325
H         2.10279644102135    1.43328212363477    6.58287695832535
H         3.32688943037018    2.33532602529396    4.67022385124574
H         2.55650346332514    1.99445411429164    2.37826531188157
