55
 energy: -97.959358015006 gnorm: 0.000336306907 xtb: 6.4.1 (afa7bdf)
Mn        0.44971909735302    0.51377360245123   -0.46764337327364
C         3.44364240939325    9.11236800984609    0.96863818081242
C         2.25858901891563    8.22751065731502    1.08837062225675
C         1.39392229420214    8.00596115270959    2.12016612135666
C         0.43808174598491    7.07132396504049    1.65340037034288
C         0.78190544010631    6.78930221518123    0.36550984140005
C         0.18233939472062    5.88229485431887   -0.65491155153896
N         0.75589958868278    4.55452318903552   -0.57767432574158
C         2.06027342454385    4.21978956755817   -0.58330355639702
C         2.06361976726473    2.84254121041776   -0.47290560851926
C         3.05920620716050    1.79408007014874   -0.37255558301600
C         4.43042825064802    2.02357843019419   -0.35491862619749
C         5.28405677811137    0.94502046096998   -0.20380871563017
C         4.73226247736343   -0.31990605286217   -0.06780636755324
C         3.35448834165443   -0.46537443445067   -0.10629386055212
N         2.52124763706193    0.56129951107084   -0.25853312593059
N         0.75940566835732    2.45309393094574   -0.40749715408682
N        -0.00387994004862    3.48451182841464   -0.46768835540642
O         1.89732331016793    7.48208000065783    0.02048547238821
H         3.62667221654150    9.60866983937202    1.91607998657410
H         4.32658821876004    8.54045301229122    0.68671229365496
H         3.27558456755367    9.86579420749354    0.20017439799220
H         1.42624633771495    8.45721552662914    3.08961044236697
H        -0.39573392381186    6.67529316688732    2.19565818732099
H         0.36426334321757    6.28664752343307   -1.65595572123933
H        -0.89075415032565    5.76766485256925   -0.49470799991839
H         2.84311596894508    4.94355806009346   -0.66835185758803
H         4.80763862236251    3.02834961073089   -0.45851877299071
H         6.35285569011621    1.08821091664909   -0.19006274132876
H         5.35754554499864   -1.18813903720715    0.06017152510299
H         2.90986226192870   -1.44749440475737   -0.01289565212389
C        -1.32506837005963    0.69039994883466   -0.65490380830006
O        -2.45316976817945    0.79157605663270   -0.80188716592765
C         0.33001278486470   -1.26815540010044   -0.53048542488285
O         0.22453376054288   -2.40637734985481   -0.60734187509514
C         0.62858853124887    0.51193456105010   -2.24653768866690
O         0.72962500309277    0.49110783241792   -3.38520534162068
C        -1.73421961872523   -0.92670562111032    4.38688366971822
N        -0.81856665557769   -0.22862000497156    3.52827280338596
C        -0.73423106840611   -0.31854995639951    2.19471344525113
N         0.20686280548835    0.44661702417655    1.67034350517726
C         0.78989646266360    1.09249099094483    2.74405935259346
C         0.14032366047994    0.66909912532757    3.92556023539779
C         0.49445176889259    1.13882218498449    5.18310646043089
C         1.52497346716155    2.05086423998055    5.24402188425818
C         2.18224123777185    2.47614914474830    4.08719733175389
C         1.83400397890817    2.01163203180427    2.83773848084629
H        -1.18354460616997   -1.49331107337504    5.13926917387355
H        -2.33710040254546   -1.61159804466717    3.79456249982456
H        -2.39188600383435   -0.21774281552839    4.89287715072490
H        -1.38421971414284   -0.96311006467076    1.62775472259311
H        -0.01615369725837    0.80334621190091    6.07122966412118
H         1.83448119469606    2.44380898563993    6.19925118306760
H         2.98804559804007    3.18824003839706    4.17772725596395
H         2.36858004147402    2.35524851071264    1.96767899317274
