58
 energy: -102.764511258041 gnorm: 0.000671921728 xtb: 6.4.1 (afa7bdf)
Mn        0.51339142598585    0.87344168982408   -0.22791712416128
C         0.60665131993974    6.48828699401205    2.25398771850863
C         0.54005288001359    6.15907299218333    0.76551552178680
C         1.30271819054971    7.09398972085597   -0.15201509333560
C         2.21961405300322    8.02729597622666    0.30990675429317
C         2.89935468541662    8.83713105024019   -0.58564411034152
C         2.67718226723909    8.71634849866062   -1.94579145164739
C         1.76673002866891    7.78280856076533   -2.41366711737859
C         1.08365405749611    6.97739047714961   -1.52175278951330
N         1.04232586983951    4.81191380915519    0.55532240098433
C         2.32543244881815    4.41031412426257    0.51611503540508
C         2.25404574147929    3.04654276063934    0.30044489895712
C         3.18709589862967    1.94634925426497    0.18923372742386
C         4.57055066763636    2.08143401293969    0.27350226552525
C         5.36186211156336    0.95140890802651    0.21156384884419
C         4.73004626617647   -0.28022411056549    0.07329006032346
Br        5.73215564361147   -1.88492121744497    0.00921724297194
C         3.34295344266258   -0.33627575272605   -0.01962619302152
N         2.58050289996754    0.74879028145208    0.03227086023139
N         0.93040603302721    2.73233849219089    0.23018480853571
N         0.22580516825832    3.79599623358414    0.38278944350529
H        -0.02148800562907    5.79713459790111    2.81209894703263
H         0.23926627203840    7.49650559112424    2.42015082432217
H         1.62370141187154    6.41376778943196    2.63228075469417
H        -0.51054492688662    6.12361779383981    0.45513529142924
H         2.40432965260036    8.14297102911354    1.36617423096925
H         3.60355173840681    9.56578343584389   -0.21448797571211
H         3.20730563562122    9.35015369870593   -2.63927295522093
H         1.58376932680140    7.68565173246560   -3.47249307040966
H         0.36694970332963    6.25531977031304   -1.88800723373752
H         3.14907827485730    5.08422479076599    0.61949276283697
H         5.00975570402919    3.05969072027410    0.38610126895422
H         6.43659330237336    1.01617104246617    0.27162560380580
H         2.85097451488734   -1.29247990744796   -0.13977661630227
C        -1.23520233436375    1.21289460089296   -0.43760215675590
O        -2.34365317636632    1.43362901119668   -0.60263810331780
C         0.28312725162248   -0.85780277238907   -0.61840576517977
O         0.10835511803740   -1.95405275330377   -0.89682315191535
C         0.76753918397819    1.19846495194453   -1.96823115814691
O         0.92007229089474    1.39710255949647   -3.08325324765328
C        -2.00318345471008   -1.21437938805516    4.21341491788933
N        -0.98214373942236   -0.47740320357867    3.52257584852916
C        -0.86609984904759   -0.30350718000645    2.20022446454778
N         0.18051673250169    0.42443043345047    1.85102137660268
C         0.80564852233926    0.75456288023253    3.03896633891722
C         0.07012508420690    0.18516307581834    4.10290943502995
C         0.44035238539622    0.33367991092909    5.43279350113631
C         1.57500800079533    1.07149825793062    5.68916650677785
C         2.31656018386327    1.63862871952050    4.65026003711396
C         1.95277956089339    1.49217334218926    3.32939701750880
H        -1.56223218984173   -2.05415772340251    4.75260389766763
H        -2.72752773961868   -1.59219487096018    3.49569276336591
H        -2.51255396850722   -0.56736729230549    4.92848524073279
H        -1.57263060844732   -0.72826769336022    1.50763670590254
H        -0.13525615417762   -0.11175318859529    6.22787832340117
H         1.90191525851929    1.21299604950293    6.70675764920307
H         3.20280515815427    2.20470559479905    4.89153180384845
H         2.55444077902451    1.93745883759409    2.55451321424626
