76
 energy: -126.457640480329 gnorm: 0.000273871717 xtb: 6.4.1 (afa7bdf)
Mn        0.95895747321241    0.85633326368191    0.04938798742494
C         5.81561656198525    3.30197544445354    3.69147320446231
O         4.57630929146728    3.09797380129611    3.03632450953367
C         4.39390407546764    1.96138459452946    2.34454776246834
C         5.29003395830029    0.89811601416131    2.27094760370722
C         4.94784646777930   -0.21005843906225    1.51330725030057
C         3.72605391483669   -0.25397592886624    0.86614855876483
N         2.84951255641271    0.74810891775723    0.93239735305666
C         3.18108772542734    1.84173357251341    1.63437280791704
C         2.21190486233241    2.90744952618662    1.53788487827221
C         2.06494843417950    4.17475625571907    2.06526248226547
N         0.93330809356488    4.64221503280923    1.50715664011604
C         0.34823880487586    5.94500924425488    1.64702422191539
C         1.25978547686611    7.04245934532152    1.05190224838758
C         0.59634681613251    8.41946422344287    1.13420039033709
C        -0.18786832906654    8.51068973666188   -0.17561854483755
C         0.71944386501447    7.80009411043169   -1.17762163719423
N         1.45775295140607    6.84457543884442   -0.36684200391026
C         2.47638333845793    6.08250770647785   -0.84332629780203
O         3.13646582821117    5.36187257577566   -0.11871145214256
O         2.59938597648857    6.23584421703885   -2.15712507863950
C         3.59582809251717    5.48843066409683   -2.90603913993650
C         3.32651477522090    3.99154806314806   -2.77261170748714
C         3.39110860906769    5.94541335777919   -4.34907266626767
C         4.99864010904131    5.84773594126002   -2.42032371405626
N         0.40917471318630    3.74859327675313    0.68919654407697
N         1.16012607978312    2.70560573852960    0.69807344611245
H         6.64725647689405    3.27461863336989    2.98351086075613
H         5.75219331305987    4.29423123596545    4.13316059604704
H         2.04408118145687   -2.86669183663197    4.34938820708443
H         6.23948739941469    0.93077283111516    2.77951833375606
H         5.63060046269278   -1.03941246479935    1.42565510809273
H         3.45122661531132   -1.11120876337316    0.26663817023534
H         2.66882755029200    4.72800317285070    2.74955308416191
H         0.17716430128996    6.15403209749913    2.70676025374174
H        -0.60296018184017    5.92035444014726    1.11233027073957
H         2.22793340622217    7.00172949432451    1.56386957136662
H         1.36474170371595    9.19144903517817    1.16275234791601
H        -0.03575364092929    8.52593831068500    2.01277834413875
H        -1.14114176542286    7.98995671255350   -0.08672808198957
H        -0.38681904464240    9.53888193088991   -0.46603995001281
H         1.41532564326051    8.49686449329425   -1.65563519861515
H         0.16632392627148    7.28034573095458   -1.96190498198621
H         3.47261544030025    3.67011227324022   -1.74376071284622
H         2.30339459565973    3.77072051274133   -3.06955075575509
H         4.00496718388200    3.43662299751353   -3.41330069425902
H         2.38041301237371    5.71496716662253   -4.67457189853983
H         4.09671353158150    5.43957567791098   -5.00039635142565
H         3.54354523531680    7.01843569641086   -4.42699459741367
H         5.13073831980398    5.54266158750003   -1.38555351790452
H         5.15749679395604    6.92137467888626   -2.49459934120447
H         5.73700059470171    5.34082123296237   -3.03447116224127
C        -0.63277981905782    1.15164551536216   -0.71476584451728
O        -1.63071860708972    1.34119684845786   -1.24180047266410
C         0.81631781134304   -0.89499965890409   -0.28579794210999
O         0.70259947759867   -2.00838838002077   -0.52719970337633
C         1.73424530277926    1.06367439379023   -1.54865867046537
O         2.20522775747937    1.10441747180313   -2.58982513269129
C        -2.55894925714637    1.39667921811800    4.29713954757824
N        -1.42836819728520    0.87369955623498    3.58258647676814
C        -0.98909206282125    1.24904387715552    2.37047821891489
N         0.05839145118058    0.56532847363812    1.95775921154058
C         0.33056831578979   -0.33841778078464    2.96480748724245
C        -0.60575951837993   -0.14465748194160    4.00264063945046
C        -0.59188674628437   -0.90663714994447    5.16319137036028
C         0.38263622538298   -1.87621485858718    5.26125041520235
C         1.30797580900183   -2.08639116482456    4.23471524622395
C         1.29863725467033   -1.33338615279238    3.08117520118593
H        -3.27062078973351    0.59660458511213    4.50637890038754
H        -3.04961385593834    2.15834601054238    3.69474295216553
H        -2.23906520392237    1.83582179377639    5.24408808836399
H        -1.46551421708770    2.03200417836354    1.80560735462289
H        -1.31487024377597   -0.75093485854115    5.94773152633065
H         0.42943531699053   -2.49391718926276    6.14402954872266
H         5.97415424013233    2.56317265710987    4.48153812146422
H         2.00524597812341   -1.51890547557057    2.28829090810862
