62
 energy: -106.439188106315 gnorm: 0.000203879690 xtb: 6.4.1 (afa7bdf)
Mn        0.74916386886718    0.67642602759739   -0.19746069629300
C        -0.66091848484704   10.70956262691871   -0.14109508899945
C        -0.40495047713993    9.93510134470874   -1.43716180593517
C         0.07482634238930    8.55032203106786   -1.12984472581093
C        -0.82663058658927    7.50031090277904   -0.98034365327389
C        -0.39258031188410    6.22816601642109   -0.66934438526467
C         0.96794276939355    5.98846624337636   -0.49849253108209
N         1.39059358374341    4.67832042656973   -0.21446206097342
C         2.62105273996579    4.23882163042103    0.13470678746780
C         2.48397941799607    2.86974911245352    0.24816184293290
C         3.33476288174999    1.74856888023817    0.58096972149444
N         2.70994728920325    0.56062715089944    0.50958647023328
C         3.39356468574168   -0.53447758813367    0.83331868438625
C         4.71884149799888   -0.48834948996783    1.23133074175229
C         5.38018844260901    0.72611905085936    1.29814436958176
C         4.68190239961968    1.88614091123773    0.97145915512280
O         5.17274739639117    3.13805201722258    1.00259089643597
C         6.52893020128430    3.32645182303025    1.36929716217699
N         1.18331230661891    2.57947967141718   -0.03182055083130
N         0.54675885485748    3.66110822112845   -0.30294688770285
C         1.88341258284311    7.02627784927464   -0.63682331071191
C         1.43009598482842    8.29323578002477   -0.94770709280432
H        -1.41296720162225   10.20565442056949    0.46146105223988
H        -1.01358828322468   11.71154077269396   -0.36886429559204
H         0.25278174235294   10.78817222598953    0.44340419689153
H        -1.32929297773510    9.88675661483728   -2.01436782812904
H         0.34368001805902   10.46421719844159   -2.02875093561571
H        -1.88181370634834    7.68134842663787   -1.11699923719911
H        -1.08888193512343    5.41179784218563   -0.56375357589766
H         3.47230584909214    4.86561976412486    0.28026880910904
H         2.87245114842520   -1.47937083897290    0.77041091233959
H         5.23357017217033   -1.40085181855001    1.48371612666210
H         6.41406733983101    0.76239691390388    1.59940955604122
H         7.20159691125699    2.81877675393444    0.67406765413543
H         6.69864416826999    4.39977649100239    1.31625720830353
H         6.71598264748070    2.98020019219059    2.38882125192646
H         2.94208306435455    6.85464958897592   -0.52294172249588
H         2.14330476686881    9.09543663773048   -1.06225004361390
C        -0.91071502932872    1.00643290583551   -0.78670223836311
O        -1.95958478457511    1.21802275125594   -1.18841161330623
C         0.51187456670544   -1.08906001072839   -0.33280816590442
O         0.34155784389140   -2.21508346375911   -0.46329746747576
C         1.34580849029307    0.67243978372399   -1.88200712312693
O         1.71620486794552    0.65313629257366   -2.96375042727758
C        -2.48721671051703   -0.81072744391958    4.01679870157053
N        -1.38284111836521   -0.12694323900172    3.40412494252653
C        -1.05753910473768   -0.11888062045968    2.10451272094075
N         0.01912857893413    0.59627534823030    1.83206725646985
C         0.43440688062493    1.10536633996263    3.04794552020691
C        -0.45053619270880    0.64591725413108    4.04954724848445
C        -0.30189496169378    0.97825102347147    5.38928076736293
C         0.75947301787290    1.79205836300208    5.71889258543845
C         1.64014159506806    2.26093690328529    4.74133312691619
C         1.49612462915722    1.93290106347292    3.41096875047957
H        -2.12273821499371   -1.52217780849826    4.75968755650664
H        -3.04983547891670   -1.34675588005034    3.25557718901069
H        -3.14590126616931   -0.09445560385097    4.51055844699363
H        -1.63795260632397   -0.65285892203318    1.37145146003342
H        -0.98853515302971    0.61497877970789    6.13673464182629
H         0.91532328572767    2.07615315609961    6.74738951471228
H         2.45650233196319    2.90065605711097    5.03977094579477
H         2.19179642232493    2.31581514555384    2.68321348868032
