58
 energy: -102.772517797365 gnorm: 0.000686618360 xtb: 6.4.1 (afa7bdf)
Mn        0.45201634872764    0.82018296109592   -0.32668291687669
C        -0.94639205646766   10.68341617923572    1.24783168519689
C        -0.87437684739848   10.13342608151975   -0.17999678055438
C        -0.34465174780307    8.73370101429405   -0.16773711539977
C         1.02282065299896    8.49035152861824   -0.25377197718207
C         1.52612876361773    7.20524206085561   -0.20788006088742
C         0.65022036950597    6.13351053565408   -0.06891153517615
N         1.11609780282038    4.80754517770338   -0.04348602017466
C         2.38814321650117    4.35101005765744   -0.02273959909571
C         2.26755817731273    2.97437885166627   -0.04372267935296
C         3.16191257624151    1.83836092708750   -0.02949145040827
C         4.54982086365374    1.93272367441851    0.03854770873045
C         5.30099960306210    0.77552053655011    0.09666401732227
C         4.62589172581819   -0.44072003407786    0.09203508175924
Br        5.57118799251371   -2.07743105757866    0.20076736681565
C         3.23749840852818   -0.45787595369185    0.00500284600615
N         2.51334710672461    0.65224009276945   -0.06018694722598
N         0.93478081433420    2.69771061840362   -0.06867375451525
N         0.26490561897898    3.79253902298912   -0.06706081346150
C        -0.72107128152740    6.35784001820073    0.02423969088587
C        -1.20507060547943    7.64847276104596   -0.02424418635001
H        -1.33637847035709   11.69722369733386    1.23731817524629
H         0.04170071426122   10.69668052669829    1.70164937117739
H        -1.59912458871222   10.06682299239890    1.86108279616455
H        -0.22341735898928   10.77265018488123   -0.77801284455418
H        -1.87241004544582   10.14806604448635   -0.62020066634720
H         1.70423867392618    9.31964877845529   -0.36782262993297
H         2.59007129964776    7.05141823905546   -0.29424794426830
H         3.24963938450294    4.98163814431072    0.00508743568048
H         5.02397021309959    2.90089762594289    0.04729641657555
H         6.37760389692520    0.80900545056750    0.14772167481173
H         2.71219843203489   -1.40367666933953   -0.01273621779722
H        -1.38728398314937    5.51635706486844    0.12623197343894
H        -2.26874550163669    7.81816746175912    0.04340032300883
C        -1.28247860309795    1.20730619717740   -0.56469439389436
O        -2.38074025444886    1.46214261358484   -0.74800069027228
C         0.15823830525437   -0.93132281507140   -0.54633700733467
O        -0.05523932125937   -2.04322709135839   -0.71415681584957
C         0.70847622634630    0.95910513538884   -2.09146467341833
O         0.86634007661170    1.03098564177075   -3.22093992368168
C        -2.05423028476295   -0.85230348006981    4.29360543107490
N        -1.01917094580137   -0.20672248006196    3.53503982977002
C        -0.95891250621900   -0.06824071354376    2.20472735309432
N         0.12273648259523    0.56624049120167    1.78649934263567
C         0.83088201094168    0.87217011966291    2.93364975098525
C         0.11212530802092    0.37863788323027    4.04577470096898
C         0.56562116189163    0.51576337515058    5.35089251691070
C         1.76550065999607    1.16746307185917    5.53228256051887
C         2.48539345923715    1.66954232680719    4.44562640777780
C         2.03858316435141    1.53491656839432    3.14922202502846
H        -1.66238712010540   -1.74585586766644    4.78241562836244
H        -2.86760280434704   -1.13717251899344    3.63023978078063
H        -2.43533575935596   -0.17333346451282    5.05711458602277
H        -1.73242758203446   -0.44743020227414    1.55878235583701
H         0.00259105487657    0.12653305699413    6.18363825091954
H         2.15933670442008    1.29501714680608    6.52786954102108
H         3.41977750719494    2.17717967995980    4.62955990711139
H         2.61965589091357    1.93778672975116    2.33621611235013
