62
 energy: -103.197179771021 gnorm: 0.000837680203 xtb: 6.4.1 (afa7bdf)
Mn        0.18016073869243    0.87430064288902   -0.41673974733396
C         6.22994847658468    3.32847767776550   -0.88412387085768
O         4.84603565498337    3.16202462537741   -0.62599439004166
C         4.31136062899597    1.93345221083911   -0.74699570993404
C         5.00412717913548    0.76792576349069   -1.06660313399111
C         4.30323634850625   -0.42444521072545   -1.13052892563799
C         2.93861698084244   -0.44027337550298   -0.89509153900040
N         2.25515044933330    0.66351497210860   -0.60122562860807
C         2.92454294436011    1.82676665135888   -0.52149250782346
C         2.09011452002152    2.94907736036214   -0.15155700571435
C         2.27383879967620    4.28300409511822    0.15735876726170
N         1.04549688414855    4.72750041264524    0.48456519310527
C         0.63943765713182    6.05253339535403    0.89499631194851
C         1.42561480975431    6.51449586105599    2.13614151392883
C         2.54276924376318    7.48781257700473    1.77412118288350
C         1.96784495746562    8.76283210885036    1.14794770161797
C         0.74066410694424    8.46403839875604    0.27551950433023
C         0.79193939582118    7.04062470559583   -0.26933127467445
N         0.15865599855870    3.75888950081734    0.38992938794663
N         0.76406855669625    2.68991394342454    0.01183831237002
H         6.47913060793927    3.04441471847795   -1.90897540985198
H         6.83735050528630    2.75403223945039   -0.18016874922185
H         6.42604413627937    4.38964898748114   -0.74685116207365
H         6.06416262616671    0.78272010056275   -1.25968016273236
H         4.81514607071270   -1.34259673213461   -1.36772131338275
H         2.38340496976594   -1.36621763236386   -0.94779342235114
H         3.15462451217795    4.88630614070459    0.16441073173836
H        -0.42075948334149    5.94742206072542    1.14543669034204
H         0.73911410335304    7.01442486722150    2.81955859687873
H         1.82978010010542    5.64453981374533    2.65918538029941
H         3.24045747538892    7.01413584007068    1.08137942741926
H         3.10654376887166    7.74105701107850    2.67222387717160
H         2.74360039997362    9.24311453111942    0.55093637966091
H         1.68481850103421    9.46225703963024    1.93440012110949
H         0.69169420231549    9.17118767236817   -0.55159446866144
H        -0.17450265035601    8.57990810576543    0.85801108322930
H        -0.00857833626179    6.87824067415266   -0.99215055347437
H         1.74244970685703    6.87915351266053   -0.78075555118521
C        -1.55652427146054    1.29389017254096   -0.29436144173003
O        -2.66600584030534    1.56689372688098   -0.25668585785175
C        -0.19984957879190   -0.83836166074828   -0.76107290290655
O        -0.47804272381446   -1.92322461321979   -1.00207760356073
C         0.11074600534239    1.22198866783961   -2.16803662121323
O         0.05560927782225    1.42780088602836   -3.29177294908199
C        -1.68288244799997   -0.87910801867694    4.46567144448109
N        -0.72457937776433   -0.28002112079399    3.57962481858213
C        -0.80633185848562   -0.18355226818623    2.24601935682402
N         0.22735391128381    0.42593218224937    1.69415585345636
C         1.06230458690827    0.74948568346813    2.74685352290583
C         0.45849989244474    0.31018012999736    3.94679075204440
C         1.04663970499104    0.49427544732606    5.19086587398478
C         2.26895816638474    1.12886503321035    5.21885915856168
C         2.88819733229548    1.55480259439579    4.04142807457659
C         2.30833131756756    1.37285700041838    2.80492783928662
H        -1.22651955272280   -1.70881540913595    5.00798755244336
H        -2.52731692783207   -1.25098119681246    3.88942970487927
H        -2.03914252051428   -0.14181775160721    5.18681416240072
H        -1.64596586629201   -0.57810148043478    1.69960400571360
H         0.56771485952548    0.15263366638161    6.09418966460276
H         2.76290501843957    1.29491629789432    6.16293734464896
H         3.85225677851274    2.03608450381154    4.10486881217010
H         2.82171356677239    1.69734325986595    1.91522279809918
