52
 energy: -100.658976748303 gnorm: 0.000915722237 xtb: 6.4.1 (afa7bdf)
Mn        0.45925647167824    0.73955340542377   -0.28419502990626
F        -0.95375193498148    9.83006768531022    0.21363317573376
C        -0.46049823676882    8.59120819815717    0.18596202675154
C         0.88023313435955    8.39512979105848    0.47947481275025
C         1.39367421786440    7.11323823233475    0.45334087226597
C         0.56133303769193    6.04585939168008    0.12977656811075
N         1.05249914145789    4.72937214201535    0.08926934736971
C         2.33425666651447    4.29815440207255    0.06736136062951
C         2.23921659766722    2.92144643694500    0.00826903009086
C         3.15492123032197    1.80127390697275   -0.01091328788555
C         4.54148304537785    1.91916925582325    0.04034554415892
C         5.31336181596964    0.77443223497564    0.07308874769243
C         4.65993651984938   -0.45363112084924    0.06019442819177
Br        5.63422816019374   -2.07456866751631    0.13304030876927
C         3.27048371910330   -0.49341093186135   -0.00776686690019
N         2.52677000334525    0.60468837585806   -0.04730124820911
N         0.91032615584813    2.61947328657165    0.00190738550683
N         0.21993647605083    3.69868031803167    0.05026152296583
C        -0.78551929862025    6.25597289815817   -0.15932130374936
C        -1.30172267468092    7.53499040655967   -0.13101905450234
H         1.50258650103411    9.23982414676732    0.72615613372461
H         2.43239840934125    6.95877589168891    0.69690110468265
H         3.18233222141113    4.94760023002754    0.06946909433959
H         4.99946613037300    2.89506651100125    0.05548052824249
H         6.38978270036192    0.82583987048755    0.11134249272496
H         2.76137568701662   -1.44790190179110   -0.03107392142861
H        -1.41052740867304    5.41276925473632   -0.40538838918863
H        -2.33926397337247    7.72422149378188   -0.35324461779555
C        -1.28690895658459    1.09283997535235   -0.49124232544991
O        -2.39246269106098    1.32394106546212   -0.66116929311735
C         0.19732448054925   -1.01432101056106   -0.53212435172157
O         0.00598410090272   -2.12615799144683   -0.72181179401260
C         0.68728440803052    0.91496068546280   -2.05027437959160
O         0.82242857920201    1.01500899803799   -3.18021553052075
C        -1.97990732916839   -0.99660350900020    4.34690113099647
N        -0.96720725239245   -0.32458184694551    3.58155789900754
C        -0.89290476225589   -0.22713275510977    2.24876603957029
N         0.15880620726485    0.45300002559711    1.82482228235741
C         0.83136871244664    0.83349785219707    2.97119241737558
C         0.12031212868513    0.34130417129260    4.08877726973218
C         0.54018898586519    0.55184239348928    5.39533149702867
C         1.69982962399527    1.27380414022241    5.57235610200122
C         2.41587694218513    1.76812496813268    4.47964552089301
C         2.00233937339579    1.56065288288172    3.18180951231969
H        -1.53996955220129   -1.81817422918924    4.91434447651155
H        -2.73952269953692   -1.39278106818638    3.67700173519354
H        -2.44620808154817   -0.29928520191110    5.04402351231551
H        -1.63299190515945   -0.67083876842384    1.60467157113200
H        -0.01767639311335    0.16489414093600    6.23251889099619
H         2.06555893129659    1.46160981548348    6.56909729725769
H         3.32113901400245    2.32695664740615    4.66006517062438
H         2.58307361955318    1.95394847439811    2.36373058402691
