81
 energy: -145.810714713861 gnorm: 0.000574947428 xtb: 6.4.1 (afa7bdf)
Mn        0.52376524784564    0.63005159701951   -0.47270268594129
C         0.11313876722533   12.98327177380113   -0.39635819080717
C         1.00007444290387   12.31898863176666    0.64159864600406
C         2.30032147535945   13.09154893356815    0.82614499563039
S         1.44652892812113   10.60099524119950    0.06128378343021
C         1.60772977693697   10.06325394241832    1.79891365389418
C         0.87824987675265    8.75994479763001    2.20592070120487
N         0.45242467673785    7.89920836664500    1.14590487889193
C         0.96036645008033    6.67041435823664    0.95914229820522
O         1.75313350165384    6.12321827683325    1.69107641203015
C         0.41763060292638    5.99526364436225   -0.32033440674706
C         0.78548877400772    6.78013415619703   -1.56368557904599
C        -0.06723166747899    6.76013007290930   -2.66005208494240
C         0.26164132801838    7.46144520280447   -3.80665693098899
C         1.44088080188710    8.18536999893633   -3.86361144459645
C         2.29555744444236    8.20291047687589   -2.77454573515043
C         1.97305051681130    7.49886891436221   -1.62797885683717
N         0.94456621564650    4.65803204988884   -0.37898918441580
C         2.23690112669603    4.28854223329721   -0.34275719404755
C         2.19570657364571    2.90765659813006   -0.31932518220512
C         3.15726971306655    1.83086578921930   -0.20358249306153
C         4.53028973757594    2.02550731219829   -0.09792256903778
C         5.34774485042792    0.92210574173957    0.06795106463124
C         4.75979845346900   -0.33267712069618    0.12945662784935
C         3.38395248872703   -0.44214499797935    0.00715292782629
N         2.58540755364071    0.60982915821903   -0.15912467579147
N         0.88095267100644    2.55340875230314   -0.34325280255109
N         0.14896024965777    3.60717854946445   -0.37489974827956
C        -0.20972569655684    9.72381802838260    2.73725700938701
O        -1.31864279652096    9.60384720100920    3.15763434372160
N         0.58300761540239   10.81145624654982    2.48494763787994
C         0.23273180594698   12.11183652400902    1.98399040706785
C         0.54534948392138   13.23752272793343    2.96896430073168
O         0.09286020364041   14.34167644307034    2.87268713765626
O         1.37406905991717   12.84861745500399    3.93161611494469
H         0.66398837095487   13.13583496173863   -1.32128177305410
H        -0.76125728414181   12.37289333409343   -0.61185719993420
H        -0.21557376262421   13.95016262141028   -0.02074157412984
H         2.87154401665939   13.07042326900597   -0.09936185370199
H         2.90988569638916   12.66123034333126    1.61848325338855
H         2.08776362102846   14.13012948117435    1.07130010313057
H         2.62768635946101   10.20779889138084    2.15802185520031
H         1.39742351374991    8.16104574394813    2.95610921887596
H        -0.13840204187690    8.30894503180268    0.43604435972611
H        -0.67007216534964    5.88629197553704   -0.24387385761643
H        -0.98782719937401    6.19675713270234   -2.61434791335015
H        -0.40616651059689    7.44377084902868   -4.65375366242100
H         1.69306333274344    8.73620654260547   -4.75615545129742
H         3.21334909863679    8.76801208412942   -2.81285289903794
H         2.64015725945990    7.52455537644841   -0.77836314243953
H         3.04552524709705    4.98618956454631   -0.33599215480035
H         4.93400040942989    3.02408048232467   -0.14392067903181
H         6.41689121389996    1.03754164550976    0.15036387212450
H         5.35640391083344   -1.21972916033920    0.26534205355485
H         2.91155266482990   -1.41506069312730    0.04329486807922
H        -0.84967229532745   12.14348778467977    1.80468085061559
H         1.53539677176013   13.57141434975659    4.56065916975150
C        -1.23518670866353    0.85604702963722   -0.73196620618508
O        -2.35459577232169    0.98411235067503   -0.92313977909810
C         0.36047422750362   -1.14533930778303   -0.58442200090189
O         0.22695685917281   -2.27816417191806   -0.69862392718372
C         0.78512378363108    0.67033484560580   -2.23981612673195
O         0.93614121417544    0.68071176127285   -3.37380376296394
C        -1.89871877107706   -0.88180748684880    4.24298982317051
N        -0.94534338623004   -0.16508956123151    3.44317911007192
C        -0.77289198287829   -0.25556529994258    2.11818240389190
N         0.17888847711763    0.53355013669396    1.65227513195633
C         0.67390405424834    1.19912716424608    2.75914025780069
C        -0.03944543238379    0.76083000008852    3.89748145604927
C         0.21570245094332    1.24509524916380    5.17317327971373
C         1.20967225955088    2.19078014786681    5.29692117302587
C         1.92866366613869    2.63209509431374    4.18391331748149
C         1.68151846126797    2.14959116172726    2.91760719016456
H        -1.38672075253514   -1.42179507592649    5.04084126935474
H        -2.43604069026157   -1.59215160765303    3.61820486739559
H        -2.61267394398108   -0.18806045719444    4.69077623055075
H        -1.36841919313688   -0.91826048149772    1.51353601536045
H        -0.34271275587424    0.89660465490756    6.02698555578030
H         1.44023042509979    2.59829590641037    6.26830537001919
H         2.69823591574390    3.37590579754187    4.31856079753844
H         2.26260911341904    2.51157645956835    2.08686893365206
