66
 energy: -113.650824884501 gnorm: 0.000586656455 xtb: 6.4.1 (afa7bdf)
Mn        0.46051238501054    0.88232973918721   -0.07869961862916
C        -0.32973832627399   13.23255885785127   -0.15148215795779
O        -1.22798716052634   12.15144586544577   -0.22877410844198
C        -0.72852635665039   10.89928688436179   -0.34466587828160
C         0.61502942454396   10.56920029732705   -0.37466475096582
C         1.01545674499460    9.24545905531567   -0.49758544165870
C         0.08059713052251    8.23505749830347   -0.59876387959921
C         0.51043968867098    6.79748696403409   -0.70249019331960
C         0.60318483521791    6.18252844664871    0.70511709644247
N         1.07060601409075    4.82601650006793    0.63742986024599
C         2.34493324127444    4.39065602983629    0.61202745301135
C         2.24345556481031    3.02402175541105    0.43154918161419
C         3.15357666496941    1.90042651130126    0.34112618740353
C         4.53748410098295    2.01285116926013    0.41695358089037
C         5.30307226342993    0.86166674627336    0.35928644246488
C         4.65385319501033   -0.35777678892177    0.23846081258685
C         3.27036294996141   -0.38379698874874    0.15838903939928
N         2.52124145278100    0.71535058720161    0.20173951734895
N         0.91416563528567    2.73928143428043    0.35887762193015
N         0.23159092477814    3.82160799647089    0.48137240675883
C        -1.27627329708453    8.55470334703890   -0.56450146895694
C        -1.69490903848402    9.86683641046157   -0.44371797898090
O        -2.98553826750220   10.27792918087042   -0.40874434519768
C        -4.00593074483567    9.31940083520222   -0.54140728848430
H         0.30917679219894   13.16254596121227    0.73482503701855
H        -0.95065098249246   14.12330034660766   -0.07726903271881
H         0.29523385227635   13.30098345678142   -1.04750662356462
H         1.36772986081402   11.33740914940562   -0.30736938301225
H         2.07051054410027    9.01651993728136   -0.52675054171768
H         1.48703120680921    6.73556776614505   -1.18743712177927
H        -0.20777731846501    6.22419592446579   -1.29106521177080
H        -0.38529662015642    6.17272347274305    1.16695921706333
H         1.28904427283497    6.76574026582976    1.32273043996832
H         3.18617248254640    5.04196574209521    0.71898919231105
H         4.99189770296272    2.98547253101966    0.51742079754749
H         6.37903242155058    0.91479407125418    0.40919690343934
H         5.20856992552051   -1.28071474630380    0.19877612958617
H         2.75042217411097   -1.32694086392826    0.05367371360584
H        -2.00000587946845    7.75913066925841   -0.64831167674309
H        -4.93854591280192    9.87952521456492   -0.50926092124651
H        -3.93740030302767    8.78683474778610   -1.49553314797728
H        -3.99085088927850    8.59708930190209    0.28190907923410
C        -1.27138722075803    1.26401765527394   -0.33491150805516
O        -2.36820943312307    1.51320379587185   -0.53649312553914
C         0.19035249907458   -0.84861563605794   -0.43730324463691
O        -0.01625136271073   -1.94612772481018   -0.69153524202651
C         0.76038475859509    1.16329027581182   -1.81810858712548
O         0.94251079169980    1.32598371280738   -2.93529995703110
C        -2.22168252695282   -1.00767119867300    4.35534862734465
N        -1.14712175700397   -0.34593824995904    3.66951301204134
C        -1.01975175797534   -0.17051564403852    2.34784307217167
N         0.07958786908910    0.47589878484654    2.00250380754134
C         0.73038358573827    0.74659988145423    3.19135517856035
C        -0.04443540220837    0.22627119829824    4.25254314258295
C         0.34141010017279    0.33230820660873    5.58194927408012
C         1.53129021200539    0.97677132482370    5.83971100550746
C         2.31010931483130    1.49685477729408    4.80336081864913
C         1.93082898787603    1.39293749680107    3.48285524865114
H        -1.85155201681557   -1.89755676931662    4.86760273703655
H        -2.98460270974052   -1.30101687117881    3.63752259655979
H        -2.66369422689694   -0.33655344173453    5.09313794019938
H        -1.75865129083921   -0.53381049119417    1.65410893033634
H        -0.26375612302650   -0.07466479133681    6.37579267121169
H         1.87204484226578    1.08190812465218    6.85730182634411
H         3.23729012382847    1.99253545450863    5.04672273307486
H         2.55908838782435    1.80105584670603    2.70849910367908
