60
 energy: -107.787147479855 gnorm: 0.000283247431 xtb: 6.4.1 (afa7bdf)
Re        0.38035190729909    0.74451735650400   -0.37681293429968
C        -3.60183316751428    6.69291286371597   -0.03091208672288
O        -2.71586296793275    7.78914596909415    0.04170821363947
C        -1.39012655338862    7.55443387886341    0.07894040067768
C        -0.55726071723870    8.67779870330449    0.12630320108270
C         0.81103860159475    8.54326977306782    0.16339243722374
C         1.42121842345283    7.28830723446326    0.15623829669330
O         2.77082322152752    7.10142033096218    0.18858429350148
C         3.61399173405536    8.23710966564456    0.17846421490241
C         0.58671621903880    6.16202462477558    0.11103330760128
N         1.08413195126040    4.84780244953947    0.08275905627092
C         2.35610695379017    4.39169694364710    0.11328081208719
C         2.24104859954092    3.01680053866525    0.02454864732764
C         3.16610289648917    1.89948136556158    0.01178928138108
C         4.54547194853421    2.04859527538533    0.11219161588947
C         5.33961439773990    0.91600244970143    0.13047141639292
C         4.72744688120480   -0.32633707513140    0.05214620490406
C         3.34828284175987   -0.39054463657747   -0.05688047670158
N         2.57500431685031    0.68995582948292   -0.07944717111990
N         0.91239209202308    2.74083948774626   -0.04637742389352
N         0.23748513406290    3.82982645662623   -0.00973324889196
C        -0.80175498300008    6.29911657908860    0.07353169579465
H        -3.42980067970389    6.09849848613743   -0.93272238991770
H        -4.59904705735986    7.12645925067047   -0.06891430320418
H        -3.51795009062038    6.05286918047217    0.85239283388400
H        -1.01190307430432    9.65469213825090    0.12988529763283
H         1.41511516143153    9.43406798606486    0.19654854476335
H         3.46410567969340    8.85328316123808    1.06831666906806
H         4.62960806386601    7.84473658342295    0.18024619826292
H         3.46082903400467    8.83790234786918   -0.72110598871615
H         3.20432404494151    5.03417125458409    0.18560766536843
H         4.97271975000159    3.03641568512097    0.17504488754558
H         6.41220054688508    1.00041674405508    0.20561662583501
H         5.30679528203906   -1.23452545212422    0.06856570483594
H         2.84636822635720   -1.34582735985714   -0.13177064850795
H        -1.38923651430507    5.39767550329080    0.03282168168283
C        -1.52446688081218    1.12498121493580   -0.57952466001653
O        -2.62164404672437    1.42325305042592   -0.67999233294268
C         0.13196325711614   -1.18291943747019   -0.56195614060000
O         0.02597575540272   -2.31864331194649   -0.63175492948186
C         0.66602341418404    0.93860171469219   -2.29909227950616
O         0.86037055691937    1.06383471602296   -3.41569898086744
C        -2.08523146066441   -0.84657261217410    4.39917519910101
N        -1.04766814340342   -0.22456531242279    3.62557542091101
C        -0.99532178309437   -0.10633951250468    2.29274862095149
N         0.08756798137023    0.51011585347199    1.85964770671996
C         0.80891341306076    0.82552379270685    2.99343254638012
C         0.09377014768319    0.35752494170666    4.11873552389281
C         0.56054297945199    0.51193075048363    5.41658717268961
C         1.76956234240472    1.15328901330811    5.57543876875747
C         2.48617654553183    1.62757036979771    4.47456483797373
C         2.02630528681952    1.47593151045124    3.18475120810400
H        -1.69323650718839   -1.71976405288458    4.92388419798683
H        -2.89129103065167   -1.15942675326725    3.73897529375332
H        -2.47698665380259   -0.14229380666620    5.13456774737135
H        -1.77153114925416   -0.48570505612096    1.65178197307181
H         0.00126460111260    0.14339508413213    6.26127538938193
H         2.17339300858455    1.29333553919226    6.56540347412765
H         3.42877593382183    2.12595591555367    4.64109110372776
H         2.60582232803514    1.85424881527522    2.35945760620050
