84
 energy: -149.440163436716 gnorm: 0.000401898332 xtb: 6.4.1 (afa7bdf)
Re       -0.61355049365437    0.45623866535155   -0.23582290961570
C         1.69130134870226   -2.15070576000480    0.43604386920606
C         2.31497066517553   -1.11868011435860   -0.43840398001695
C         3.58522280902441   -1.32804431806855   -0.97594973878714
C         4.16191166778850   -0.37009283456386   -1.78773467275912
C         3.46272569974966    0.80071407597751   -2.02979693452280
C         2.20462100275049    0.94758421113725   -1.46370953636699
C         1.42146999701180    2.16161890445783   -1.61301124219521
C         1.65779149062154    3.43456384825052   -2.09960215092787
N         0.52842259469621    4.11431698241826   -1.82646760808329
C         0.21571508361693    5.50094540791748   -2.06603055554098
C        -1.33282031951606    5.51575826302184   -2.27649437934676
O        -1.81046364213121    5.31779172720113   -3.36212450608654
N        -2.01290602170578    5.70242426703723   -1.13565444552971
C        -3.42809001836706    5.55194025632830   -1.02364048172432
C        -4.19068876107464    6.81229375493244   -0.54210509706078
O        -4.31417632334780    7.93689447861358   -0.91264205379725
N        -4.68235420201171    6.13510861529041    0.55413457903925
C        -3.91437312434669    4.94033918926035    0.31214175076289
S        -2.70774841109600    4.84503243923493    1.68806573567577
C        -3.37480434282913    6.37259232036049    2.53747661418482
C        -3.41517109777842    6.13774109328139    4.03811620690224
C        -2.47137356451848    7.55239687735584    2.19791499239042
C        -4.78697865513845    6.58413952972943    1.90896384677750
C        -5.88423221558674    5.84483676508403    2.67340554155696
O        -6.42390497637931    6.28636599480639    3.64655427275318
O        -6.16085076692203    4.65460844512685    2.14694764646454
C         0.67593623980802    6.38621679544613   -0.93447157245025
C         0.98173857129089    7.71628440100126   -1.19827312988839
C         1.35997393637589    8.56094768975650   -0.17038012356947
C         1.44335421530920    8.08484454266846    1.12805564936600
C         1.14097854589487    6.76109841155726    1.39648926956693
C         0.75234166769911    5.91399282470496    0.37259070093087
N        -0.34748601146970    3.34052017866380   -1.21855864707662
N         0.16987746507140    2.17516807223117   -1.09058524546391
N         1.63332130368600   -0.00002438046047   -0.69030372964511
H         1.25738645838826   -1.68571914650951    1.32058797236360
H         0.89286954417148   -2.65867677201683   -0.10619023244034
H         2.42292432421116   -2.89118072465854    0.74529701149716
H         4.10668722331143   -2.24493376061007   -0.75463050314515
H         5.13843512421311   -0.52515803782486   -2.21822933339808
H         3.87095167955419    1.58451372070174   -2.64620706039291
H         2.49878112971409    3.87566832878093   -2.59003465409897
H         0.67845418078207    5.80565859224628   -3.01032128890704
H        -1.50937418130042    5.81915444711415   -0.26293550234815
H        -3.81539600278046    5.09180490448320   -1.93462581568571
H        -4.47525574292804    4.00817230235170    0.27401887814889
H        -2.40439675328708    6.14046318214248    4.44051643687578
H        -3.89175214433242    5.18977143832709    4.27779587360103
H        -3.98159270304277    6.93227842626441    4.51907772832727
H        -2.50918715562955    7.79620623840285    1.13770247468853
H        -2.78586140024533    8.42963357800668    2.75959516538786
H        -1.43949236949738    7.32601448609637    2.45986547215853
H        -5.03434573092195    7.64993993297196    1.92442363394182
H        -6.89494162128278    4.23042438240557    2.62183500890121
H         0.91670103089834    8.08862861373810   -2.20930240078465
H         1.59283000455857    9.59196539477928   -0.38465562223202
H         1.74345723239198    8.74419172849929    1.92738926078218
H         1.20798048460644    6.37640237603977    2.40330556633565
H         0.51228578489521    4.88557931860084    0.60715211982467
C        -2.41620303136921    1.18844285365538   -0.16087819972623
O        -3.43931949220105    1.69599489447699   -0.15512037615177
C        -1.19941287819103   -1.14034677761162    0.72282735222402
O        -1.57612202021044   -2.03832311275816    1.32378258548137
C        -0.95859221806358   -0.39747483639387   -1.95880210490443
O        -1.11938490617814   -0.88979228504779   -2.97424426781831
C        -1.58445010681797    2.72071760043825    4.78045061124639
N        -0.77942170845289    2.41052682408819    3.63412514457553
C        -1.09431034538181    1.58603713134327    2.62842178765431
N        -0.15036880401419    1.48798328675543    1.71220419569931
C         0.87249957772465    2.30349731777152    2.15009591622762
C         0.47159307240396    2.90473573250780    3.36416873876382
C         1.28355717401948    3.79349843929149    4.05510026404580
C         2.51959889427618    4.06843497624556    3.51029036709520
C         2.94009054118284    3.46201605505438    2.32428203711249
C         2.13928698361975    2.57616004537889    1.63699550836080
H        -1.05623115414848    2.44926412313638    5.69601203861013
H        -2.51710379709086    2.16395001791206    4.72735626505542
H        -1.80572334006170    3.78810104472543    4.80207646706764
H        -2.02961349678626    1.05679786421427    2.58961209909077
H         0.96237114820548    4.24197837574967    4.98163719325638
H         3.18489674753094    4.75274057805966    4.01282757134517
H         3.92376864373446    3.68831763257037    1.94286140979038
H         2.50346576113931    2.09847364918296    0.74218027213241
