62
 energy: -108.550074790227 gnorm: 0.000511214946 xtb: 6.4.1 (afa7bdf)
Re        0.45628978230614    0.73109608167010   -0.40612981437162
Br        5.88989094346588   -1.75770784049990    0.12497382210301
C         4.82714878344924   -0.19193902557249    0.06508832224077
C         5.40632423357919    1.07075226248656    0.14121655251867
C         4.57361503666864    2.17213653310876    0.11213003781425
C         3.19812305301633    1.98165654673981    0.00518053359600
C         2.23499764483415    3.06410901980300    0.02589560151713
C         2.29695743782132    4.44158803566640    0.14657108380305
N         1.01249919669477    4.83922214418612    0.14063990806782
C         0.47937156091714    6.19042934919471    0.17914413154559
C         0.09270320887817    6.61371082809405   -1.24088484659393
C         1.34067808575895    6.93625904810475   -2.05182917275616
C         2.04952286859079    8.13719006131939   -1.43494156981659
C         2.25072090188322    7.99583130949681    0.04751085887426
C         3.18863361421946    8.79797670916069    0.69139318112664
C         3.38205763884895    8.71898235601692    2.05670974154332
C         2.63328175601650    7.82900680652944    2.81085327496630
C         1.69692365605670    7.02896289593216    2.18632454196682
C         1.49708404593435    7.10764880108928    0.81075030642879
N         0.20332549115626    3.80846512177149    0.02596191872046
N         0.91436864742650    2.74279987222797   -0.04482231004452
N         2.64831556299366    0.75168890677072   -0.08813283832910
C         3.44674393622787   -0.30517428616795   -0.05614339702657
H         6.47573658484627    1.18155391663006    0.22420195195693
H         4.97510487791991    3.17077547663293    0.17485786657397
H         3.11712406049868    5.12085067383458    0.24004600295052
H        -0.42322891536594    6.13366971285265    0.79860706624348
H        -0.53730529620866    7.50112110778505   -1.17291358282595
H        -0.49010782946995    5.81722567494177   -1.70729879083202
H         1.06609951872333    7.15895342013517   -3.08274752690092
H         2.01075384787457    6.07194108911465   -2.07072621618955
H         3.01311365650809    8.30009061379482   -1.92139881889929
H         1.44798535359243    9.03476193583518   -1.60896565512754
H         3.76978843061645    9.49414407791697    0.10517115073385
H         4.11304496977543    9.35208502296571    2.53495366049274
H         2.77431262035798    7.76477620072466    3.87844009020990
H         1.10299976037039    6.33723358497641    2.76835619676668
H         2.98448724568033   -1.28012765804622   -0.13060397712670
C        -1.46240894665331    1.02928759045876   -0.63258543602592
O        -2.57147140634121    1.26545187824750   -0.74988040742814
C         0.28369417824132   -1.20318525201817   -0.61710601038333
O         0.22901559772616   -2.34004023243717   -0.70596578279227
C         0.75408806747522    0.95730656722656   -2.32352793198595
O         0.95678419354277    1.10612095903731   -3.43539622283206
C        -2.02268173087586   -0.92489455336648    4.33644310790523
N        -0.99373214313880   -0.27673763401674    3.57269516030130
C        -0.91791798483112   -0.18018058132203    2.23982601941196
N         0.14698778874342    0.47510728346894    1.81765126777256
C         0.83036992100462    0.83971759209604    2.96029038417601
C         0.11083667013028    0.36233967074445    4.07885014302481
C         0.54226699334345    0.55977102309168    5.38315580680183
C         1.71971486634783    1.25400701039453    5.55583464358493
C         2.44104665019263    1.73660424849937    4.46173393349144
C         2.01651217662068    1.54175518301765    3.16559909043755
H        -1.60799553340469   -1.77088818738757    4.88737631862598
H        -2.80084908675704   -1.28272106022631    3.66585368222702
H        -2.45839042101886   -0.22241298436307    5.04833839035121
H        -1.66303891421950   -0.60377922964299    1.58972642606569
H        -0.01915656608636    0.18299745848068    6.22268505462502
H         2.09548653140474    1.42872324368921    6.55124734601787
H         3.35905194013879    2.27585746070084    4.63833770786513
H         2.60062018602695    1.92645015840055    2.34620802284689
