68
 energy: -130.969414542874 gnorm: 0.000422365992 xtb: 6.4.1 (afa7bdf)
Re        0.33051007674484    0.51464720096710   -0.63803763977978
C         0.75434263639730   12.76203728592792    1.47844244010754
C         1.28616791592210   11.40186992659900    1.81139466205861
O         0.64970041980143   10.49003136331186    2.27786544985768
O         2.58818016743846   11.30258586940781    1.51475566401056
C         3.24431046881429   10.07974356252139    1.83721058453640
C         2.49957607205279    8.87541395941370    1.31608798143138
C         2.13106404891980    8.80846507242141    0.02487164024455
C         2.55929056679984    9.78860442164520   -1.02269340928247
O         3.64226153160760   10.30076243928301   -1.06847701748594
O         1.58682052117477    9.99725010043251   -1.90438955694807
N         1.30712803187174    7.77906661788841   -0.41779867901643
C         1.20596379953921    7.03235776470253   -1.55516080062487
O         1.65960751387479    7.11343298681601   -2.65211603078543
C         0.31111140131070    5.99237988157033   -0.81728495793088
N         0.82468696482634    4.66624833888975   -0.78934228557951
C         2.11980919439500    4.28533656614355   -0.77901406230043
C         2.07063175915982    2.90947610428321   -0.68362606578712
C         3.05456292109867    1.84918751472925   -0.55996095501200
C         4.42483790184927    2.08186095112127   -0.53670432812702
C         5.28065254185117    1.00660939797161   -0.37414469087753
C         4.73470564814492   -0.26052950592186   -0.23293073948337
C         3.35804820336231   -0.40844172212371   -0.27173665390188
N         2.52621759319290    0.61598584052338   -0.43261532016434
N         0.75178328179221    2.56825764995379   -0.64510493303905
N         0.02450107313419    3.61875862468050   -0.70643305435124
C         0.58118504881178    6.86703383454873    0.42883327870669
S         1.71806846310975    6.20537165317405    1.69555443992585
C         2.11911998689232    7.85821010363961    2.34736471751194
H         1.50704547734794   13.34053930350059    0.95299702414944
H        -0.14529743070960   12.66305116669911    0.87556853526519
H         0.48024393930909   13.26802893557911    2.40234968940891
H         3.34626368595115   10.00891867465379    2.92545677609033
H         4.22942335366540   10.16666149381666    1.37334650048759
H         1.88332933552805   10.58776282651815   -2.61619735148823
H        -0.73342235656686    5.95427336493316   -1.13077215940548
H         2.93389170643263    4.97370682026469   -0.85124613848882
H         4.80008594984385    3.08627960352885   -0.64736912960300
H         6.34882967167169    1.15434490317042   -0.35759963646856
H         5.36297046590575   -1.12583307834544   -0.10059703758756
H         2.90730254190121   -1.38699673066215   -0.17479004631051
H        -0.28816284363445    7.30228637784971    0.92474576227700
H         1.25650606723123    8.21276640716761    2.91788076960771
H         2.95053729126621    7.69412727542683    3.03401152318542
C        -1.61062231407969    0.72527878615175   -0.76422823502308
O        -2.73492835792284    0.90276896045425   -0.81575438341606
C         0.20872532401030   -1.43002647216813   -0.55086134159613
O         0.18338486984635   -2.57093138933129   -0.47943328414134
C         0.50841447255152    0.43484440682495   -2.58304674277700
O         0.63417052050101    0.39822733625443   -3.71469214207914
C        -1.64352243211259   -0.69699291633909    4.46374604008185
N        -0.80384962283515    0.00818056692359    3.53661103422447
C        -0.71479807909441   -0.19119620171069    2.21581482896783
N         0.15058513906467    0.60619543004027    1.61853422336012
C         0.67634994279286    1.39541472577493    2.62225262144802
C         0.07056791994523    1.02130930154522    3.84300092991747
C         0.37895107195354    1.63593398986238    5.04843795364097
C         1.31469653343610    2.64684817386899    5.01505668256873
C         1.92834070950609    3.02379467593492    3.81896680535932
C         1.62920222008164    2.41178881061357    2.62173650758438
H        -1.03322525896251   -1.22789980499136    5.19647588835247
H        -2.25740471230366   -1.41442210960788    3.92363982009928
H        -2.29227974991366    0.00450202603126    4.99009277321712
H        -1.30413308650640   -0.93343968505589    1.70673400791194
H        -0.09504422459578    1.33490352962927    5.96870620945401
H         1.58237590726755    3.15552969462388    5.92743513070933
H         2.65690879762081    3.81931496380888    3.82921909003587
H         2.13254080095295    2.72616905238201    1.72379082301785
