65
 energy: -110.564059517504 gnorm: 0.000643223568 xtb: 6.4.1 (afa7bdf)
Re        0.65462504504236    1.09030404363963   -0.21331128073688
C         3.45085763190713   -1.09088648186496   -0.12354224436202
C         3.86541843731700    0.31566699928274    0.14008884403918
C         5.21760492267713    0.63404071722382    0.26408726391789
C         5.60460688364995    1.93875198081245    0.50564759022653
C         4.62283944477389    2.90366782746306    0.65169739044227
C         3.29446709114887    2.51925017670044    0.52602133447576
C         2.20453214141101    3.45667642968994    0.71691422713274
C         2.11889122252195    4.78834012055769    1.07908551365055
N         0.79782201721547    5.04641070683741    1.10828766387446
C         0.18331208956359    6.33490135733902    1.23821951194649
C         0.15926232136298    7.01567275702058   -0.14792687063756
C         1.50333770663876    6.95249194666362   -0.79316395942340
C         1.86674352887183    6.16260332941680   -1.84777077628450
N         3.19838804655415    6.31165934371992   -2.11056523828662
C         3.72796151971291    7.21371446381777   -1.23039783828698
C         5.02836084552351    7.68289669304261   -1.09000458908765
C         5.27371491448846    8.58796386644815   -0.08022744510200
C         4.25337711626720    9.02299305508767    0.77113948909633
C         2.96330757104129    8.56234271368138    0.63821496866291
C         2.68599468290047    7.63959557040219   -0.37214676916742
N         0.10447317479502    3.97601306131563    0.78264928008395
N         0.92969755679832    3.01930986303758    0.55198032931012
N         2.92086490966412    1.25130554441068    0.25337539516171
H         3.12628779382956   -1.19165378918012   -1.15968183302245
H         4.27629679602076   -1.77595706183377    0.04623082194873
H         2.61822201769615   -1.36909873529578    0.52137738636940
H         5.95406517687112   -0.14645749256016    0.16367839871975
H         6.64781072707430    2.19935918155621    0.58864979236376
H         4.86695759860006    3.93339255812772    0.85557388910210
H         2.86127486712227    5.52167271924872    1.31084699517242
H        -0.83072284300760    6.19643845530336    1.61471643923905
H         0.76892150129881    6.92693253040627    1.94307300025580
H        -0.15378288341963    8.05108615970173   -0.01099023501278
H        -0.57149512148676    6.50994091691626   -0.78063018563686
H         1.25877571069634    5.50349777013972   -2.43881303816001
H         3.68610715425184    5.90089659652866   -2.88843830190660
H         5.81333392670477    7.35527863721710   -1.75467502383060
H         6.27093141972941    8.97710560477368    0.05528302116530
H         4.48763097906766    9.73990534540626    1.54320601799003
H         2.18055872060062    8.91842981776089    1.29199467979623
C        -1.25366080979260    1.35171147401756   -0.52600724735093
O        -2.36351916860216    1.55913459858833   -0.68473377712488
C         0.49681960681858   -0.75378491987961   -0.83242801320507
O         0.34759638581388   -1.83224121025232   -1.18429661284156
C         1.10250960168321    1.70906497329372   -2.00619574375891
O         1.40630417364685    2.11646045497155   -3.02990781878999
C        -2.07140637214577   -1.32470571860611    4.04641862370726
N        -1.01518720814160   -0.55542051780324    3.45098760181513
C        -0.82577816983922   -0.31651935382128    2.14682413147620
N         0.23060117910541    0.43260773326146    1.89609517079339
C         0.78656260687068    0.70857519388560    3.12893951753087
C        -0.00356779438313    0.08706472635391    4.12142628451105
C         0.29181354785691    0.17999274172416    5.47438164462980
C         1.40599428332457    0.91158870848811    5.82362106603697
C         2.20290436091270    1.52399655055788    4.85384692495369
C         1.91404289666621    1.43314024310253    3.50987266129341
H        -1.65415505015112   -2.14785709101068    4.62869177297150
H        -2.71118299791928   -1.72817407121430    3.26456764352106
H        -2.66861289567884   -0.69474179426460    4.70792877561018
H        -1.48086191669154   -0.70958249831332    1.38935606683026
H        -0.32354502401397   -0.30066212711632    6.21753250084382
H         1.67376086942514    1.01199214892852    6.86332301690110
H         3.07183933953540    2.08150915340083    5.16813944550825
H         2.55676519219946    1.90651530174893    2.78669074895991
