75
 energy: -122.835322448168 gnorm: 0.000620234875 xtb: 6.4.1 (afa7bdf)
Re        0.45450205293387    0.51202489025142   -0.53176948630482
C         2.91374920003018   -1.94367849900965    0.11958037639248
C         3.54447566607254   -0.61520753021968   -0.11861327091334
C         4.93364321592693   -0.50131773014915   -0.17177653440871
C         5.52147579416079    0.72919008194911   -0.39388822423347
C         4.70241842152916    1.83629844734642   -0.53621663494779
C         3.32785797652576    1.65496801807696   -0.47259369237383
C         2.39977025883330    2.76868429699869   -0.55830593789045
C         2.52766645558225    4.14483316818857   -0.60601646734030
N         1.26110992554674    4.60409325657797   -0.58463588421098
C         0.82646000803303    5.96355647577395   -0.49834992363876
C         0.93329225804380    6.46360699470300    0.96191436328541
C         0.00045030258185    5.69728419072835    1.91489149902642
C        -0.61015835833315    6.78620013100029    2.80119821070166
C        -0.68910101244947    7.98338943303056    1.85896299381659
N         0.50370123583740    7.83601221777037    1.04772398012783
C         1.24516134906144    8.90277080089845    0.64129590282718
O         0.91393667370009   10.04351068419764    0.83194878188583
O         2.35262225680102    8.47485169891329    0.00348881773888
C         3.30464597798102    9.43879517462009   -0.53109264739521
C         4.39645471199253    8.56561012728285   -1.15274941755213
C         2.63738209368532   10.30438780700143   -1.59684506509987
C         3.87991745711982   10.29450252867200    0.59461240506854
N         0.40404991663519    3.60614691169438   -0.52104078951161
N         1.06815705503292    2.50715639960677   -0.50786969226256
N         2.75533920316824    0.44885196566050   -0.27940747216108
H         2.14263471336273   -1.86634945023352    0.88528050960315
H         3.65395370120547   -2.67368029283456    0.43339484413690
H         2.44581784147713   -2.29889420653401   -0.79913423710539
H         5.54007524192205   -1.38297005606072   -0.04327261493968
H         6.59393488310389    0.82822995106695   -0.44824631616859
H         5.10943552617009    2.82060314191865   -0.69892309723015
H         3.37704487215231    4.79159979383186   -0.66015448333993
H         1.45107028770534    6.59313423003498   -1.13427286258349
H        -0.21194703033479    6.00986333131858   -0.83033264114926
H         1.98448633175705    6.38557607485007    1.27179752359853
H        -0.78177915757917    5.19511886092499    1.34313738960043
H         0.53615575371660    4.94569167759202    2.49470455157122
H         0.05555376088402    7.01139379910605    3.63438646865635
H        -1.58249062360828    6.50370355702086    3.19600504739200
H        -1.58274612263523    7.93290583314889    1.22688922747149
H        -0.67015889702732    8.94950688854827    2.36216718704500
H         3.98449071073018    7.95552479139852   -1.95369417307344
H         5.17967571633826    9.19484451689657   -1.56277026832314
H         4.83042865041148    7.91353572758376   -0.39810585923091
H         1.85713491890701   10.91436570188896   -1.15079315478476
H         3.37740933743869   10.95677134397563   -2.05039528636008
H         2.19666654140625    9.68052356019445   -2.37231377703917
H         4.64960079620766   10.94917115993135    0.19717591200571
H         3.09802749826638   10.90241752508868    1.04063042422205
H         4.31835853133384    9.66227791042750    1.36440696993427
C        -1.42666167770091    0.96683629463250   -0.78080094521603
O        -2.51033831133184    1.29561557680984   -0.91176944087134
C        -0.02306514910651   -1.37806178999991   -0.45390942396873
O        -0.36079302357337   -2.47053366763753   -0.40119441894063
C         0.76221637660324    0.37329126883252   -2.45444305534715
O         0.98402875436547    0.30833463413936   -3.57143317835420
C        -2.04116280197570   -0.04148508050197    4.45325142777382
N        -1.01315135313433    0.42281999569817    3.56445522675625
C        -0.85973962360940    0.10529544010183    2.27250870797116
N         0.18071211904592    0.68612212331602    1.70603330982572
C         0.76589858003303    1.44142581592879    2.70178387143724
C         0.00481726627247    1.28729562736023    3.88227277826059
C         0.32739982322725    1.93558752390774    5.06637949263686
C         1.44064003552883    2.74743940084129    5.05370217604012
C         2.21716662336904    2.89199629623584    3.90172619970586
C         1.90296620552188    2.24655277389881    2.72543751797401
H        -1.59506913132117   -0.54370965509650    5.31309334749401
H        -2.68665979554071   -0.74084307397066    3.92649822336919
H        -2.63944350751963    0.79877364714088    4.80932604413261
H        -1.53124125860711   -0.56208055711699    1.76156893336224
H        -0.26608571444263    1.80629828716566    5.95681091924882
H         1.72745146285747    3.27388082337182    5.94996447769322
H         3.09304784491802    3.52177397609310    3.93888690736332
H         2.53858337677340    2.35682400613779    1.86266742709069
