62
 energy: -114.006883830332 gnorm: 0.000468523748 xtb: 6.4.1 (afa7bdf)
Re        0.65893074531191    0.58126448206689   -0.24003957743574
C        -1.84415756663100   11.47033329114958   -1.80746790504687
O        -1.38998322021727   10.14550173567830   -1.55384626168058
C        -0.22675462193553   10.03831001650341   -0.91271560200641
O         0.43499575487131   10.97554255380545   -0.54641591830161
C         0.17255156315090    8.61616441769186   -0.69364922150713
C        -0.60695259066503    7.55029884626857   -1.13362167219962
C        -0.18910564138679    6.25321452654669   -0.91294987578605
C         1.01215925507580    6.02036286402110   -0.24823220907508
N         1.41753094526007    4.68974474195575   -0.04843693770001
C         2.64187755924254    4.21606212953645    0.28094096148415
C         2.48883844737060    2.84486431792643    0.31429659052054
C         3.34538729250380    1.71180916422600    0.60477559895151
N         2.74572818236027    0.51490863764187    0.49380910877000
C         3.44289230270324   -0.58124756361144    0.77285052386508
C         4.76744879645712   -0.53132068018581    1.17154677612380
C         5.40559459437945    0.69151180695861    1.28622861559686
C         4.68969885879179    1.85301725728009    1.00276927365390
O         5.16404703870012    3.10887078945514    1.08433833809333
C         6.51683596632982    3.30276496952350    1.46097696915990
N         1.18567389985138    2.59047592364185    0.00831452238683
N         0.56383163176253    3.68959624728674   -0.20431645999569
C         1.79242877878135    7.07939551633970    0.20499191772879
C         1.36825771644788    8.37278302726644   -0.02333085296229
H        -1.15234033152064   11.98470850954258   -2.47674965671970
H        -2.82220568777760   11.37215895017608   -2.27031877673245
H        -1.91269932938011   12.03183126878568   -0.87415943840169
H        -1.53288607932786    7.74359216150121   -1.65023804508503
H        -0.77539613242334    5.41340459880135   -1.25069971590882
H         3.50394536747640    4.82456606156119    0.43877640539262
H         2.92912215707782   -1.52617653475482    0.66989276280407
H         5.29759401508367   -1.44407711456692    1.38776704863624
H         6.43809681562917    0.73507487108222    1.59116483485643
H         6.67136697694540    4.37962491669089    1.44711600153981
H         7.19789439236343    2.83055747819505    0.74933019416176
H         6.70655152055707    2.92249705908528    2.46780848006751
H         2.71264550056602    6.90470156164307    0.73938059641279
H         1.95186189047330    9.21558411520571    0.31338261320975
C        -1.17154532886111    0.95399394456979   -0.81531982694789
O        -2.23219437430585    1.23502714142221   -1.12604017524746
C         0.40247552967465   -1.35140334003317   -0.33006169629249
O         0.29060700920330   -2.48875652014017   -0.34737053980395
C         1.30413597809969    0.61283621157626   -2.08329319352966
O         1.70962356963679    0.64716645330912   -3.14820734943291
C        -2.59334291477883   -0.73125551103447    4.13196055051985
N        -1.46466734207922   -0.10568315604409    3.50213891400488
C        -1.14210456176364   -0.14211694742823    2.20315622641803
N        -0.04518923823260    0.53094494351742    1.91252271204062
C         0.39182476652031    1.05598156559922    3.11176905883090
C        -0.50650339579771    0.65417172144396    4.12585937034986
C        -0.34339843937113    1.01915329249061    5.45494173294049
C         0.74693431326179    1.80409417387632    5.76009775665844
C         1.64385441568193    2.21092553517528    4.77003681184300
C         1.48567087286467    1.85033289658294    3.44987588305429
H        -2.25635338559727   -1.40762025393673    4.91900820139064
H        -3.15451308539939   -1.29654267123041    3.39099165556903
H        -3.24475015742278    0.02451221711305    4.57415328673406
H        -1.73305063130405   -0.67538885553272    1.47942017146871
H        -1.04056598427775    0.70188518836336    6.21343752407758
H         0.91437907998368    2.11218183583120    6.77978375328608
H         2.48513083240318    2.82636391276144    5.04987946788802
H         2.19802570763666    2.18072529981565    2.71281869724843
