69
 energy: -117.280460735483 gnorm: 0.000260759551 xtb: 6.4.1 (afa7bdf)
Re        0.45082271757777    0.77591860320387   -0.20991972902243
C        -0.40273726326758   13.24059791666818    0.03336609150008
O        -1.28183677295075   12.14588762257044   -0.06803216993809
C        -0.76033893457156   10.90502750168531   -0.20830150925201
C         0.58856450374697   10.59751292206759   -0.23118898834407
C         1.01199228011368    9.28371659028821   -0.38238566698948
C         0.09518085426684    8.26137436657349   -0.52015807545629
C         0.54797165506578    6.83363391473557   -0.65750553881517
C         0.57780774301328    6.16319179436773    0.72701107490535
N         1.07414301477152    4.81893261840018    0.63053649063287
C         2.35772658665125    4.41122104916590    0.60905504221761
C         2.28863712963262    3.04705188339467    0.39322965205980
C         3.26298965232302    1.97636933851428    0.28920888348623
C         4.62799894573380    2.21597937171043    0.37308521229888
C         5.49313819889228    1.13736059284854    0.30708969869394
C         4.95795427903103   -0.12986636328185    0.17641239941812
C         3.57633101585369   -0.30224044680605    0.09311495883596
C         3.00240587274124   -1.66919927042411   -0.05192227176832
N         2.74393769781844    0.73964163718019    0.14039096146116
N         0.97002666525882    2.73905769607360    0.29839341754595
N         0.26068447468925    3.80116857760727    0.44017287824147
C        -1.26716343750012    8.55829929732860   -0.49325159841925
C        -1.70843815763158    9.85982436599595   -0.34315894571997
O        -3.00611330635588   10.24901383146371   -0.31087361149077
C        -4.00904946006949    9.27815973792516   -0.48060141718295
H         0.22984524686507   13.16821117692384    0.92403486847792
H         0.22853162176501   13.33295216570824   -0.85609516330078
H        -1.03927720119862   14.11956817184812    0.11547203057507
H         1.32785184625072   11.37576674331117   -0.13605569732542
H         2.07096697082089    9.07285876453293   -0.40464081123175
H         1.54841876159407    6.80233253704439   -1.09434942097176
H        -0.13178252243733    6.27665233953447   -1.30484442984117
H        -0.43285067610523    6.11587201329323    1.13536968231366
H         1.21866607036035    6.73272046316111    1.40333055377263
H         3.18172136768277    5.07869455874437    0.74379730073546
H         4.99211865239207    3.22374603827873    0.48571751007602
H         6.56003256096479    1.28444493581451    0.36271762091642
H         5.60070681192652   -0.99385906865724    0.13309006247940
H         2.57047776789857   -1.78402367869681   -1.04660279647748
H         2.21234671883147   -1.82823083576243    0.68119845362638
H         3.76788691278047   -2.42751747040062    0.08263610423576
H        -1.97685220916249    7.75372990687442   -0.60653434490122
H        -3.99128016358260    8.53439244231555    0.32338243229900
H        -4.95103346521693    9.82212542492076   -0.44422811242551
H        -3.92131270810790    8.77238788714178   -1.44764932854445
C        -1.42717125984429    1.22475770781123   -0.48577092313978
O        -2.51029166443330    1.54984080051743   -0.63461222750473
C         0.04851622837196   -1.10105095929364   -0.56062624314117
O        -0.24853052780817   -2.19174238107744   -0.73906341673594
C         0.86261387429122    1.08494507470937   -2.09219576989555
O         1.14540548263278    1.27678164022922   -3.18124519256214
C        -2.30106463345297   -0.84011046030081    4.39886755828036
N        -1.18973294702125   -0.27840704359204    3.68366530535693
C        -1.07127879676970   -0.13803151923127    2.35709958678596
N         0.06669218564456    0.41590998637702    1.98476059207062
C         0.75662636805327    0.65997067109514    3.15513316533384
C        -0.03768495908025    0.22207946034603    4.23838917984137
C         0.37912394735823    0.32755237330046    5.55803779309681
C         1.61995141881227    0.88382033297998    5.78055619932336
C         2.41883492176559    1.31846034778407    4.72051300793635
C         2.00880483973965    1.21579077628453    3.40921903108798
H        -1.97124997639801   -1.69134284668864    4.99645024818075
H        -3.05692681592966   -1.17240889584972    3.69069712123133
H        -2.73732788244987   -0.09288759519297    5.06390062890401
H        -1.83994714337795   -0.45630920071464    1.67515130814969
H        -0.24108328959396   -0.01307826548858    6.37129372823082
H         1.98593348414667    0.98470258874124    6.78982530579598
H         3.38647367555006    1.74441456357688    4.93708533154266
H         2.65239115069181    1.55344417850460    2.61418592847072
