66
 energy: -115.442065336945 gnorm: 0.000516212271 xtb: 6.4.1 (afa7bdf)
Re        0.42018605991434    0.76599767731013   -0.41808942391344
C         4.67544768437224   14.00249941681221    0.41571946585050
O         4.81506798737232   12.80207906672705   -0.31025935075410
C         3.89319435583119   11.82761096512870   -0.15091765176930
C         2.79751358604071   11.88882641991706    0.70741243384733
C         1.91725006936601   10.82649027229552    0.78378099569461
C         2.10319430209492    9.67482910379063    0.02472654289702
C         1.16378479886629    8.55258469105211    0.11713561629613
C        -0.20966110904778    8.77138979837375    0.23858171787653
C        -1.09390311471455    7.71094963586898    0.31290653320976
C        -0.63341930389442    6.40806241687176    0.27126936166276
C         0.73465788180626    6.18170440166425    0.15453196225544
N         1.18665404900555    4.84937106381860    0.10224479836133
C         2.45185606146686    4.37377451688732    0.13110354950689
C         2.31597047404045    3.00351689858565    0.01834240063139
C         3.22321434037259    1.87106839871165   -0.00957545870623
C         4.60487484148490    1.99520935202870    0.08894816105994
C         5.38000872662270    0.84896206975379    0.08755841872004
C         4.74652623211196   -0.38114846825540   -0.00746510230515
C         3.36582609565038   -0.42032583116374   -0.11171149293464
N         2.61096255346785    0.67328963763635   -0.11585042974769
N         0.98171165265578    2.75171624828916   -0.06469584170054
N         0.32560112880809    3.85137687747319   -0.01222210948537
C         1.62892622996981    7.23995212824409    0.07674505629149
C         3.20567932716317    9.62048600421954   -0.83126184249241
C         4.08136360480764   10.67639738349361   -0.92290221067129
H         4.71971890267120   13.82590525356662    1.49487145065961
H         3.74161704576451   14.51511268204751    0.16595970758207
H         5.51787262303818   14.62454005441609    0.11862797956886
H         2.62162002828859   12.75847279477294    1.32001881758212
H         1.08475976329975   10.88624829108021    1.46913121283083
H        -0.58433074882201    9.78279770052603    0.24992374623662
H        -2.15299872361897    7.89751626589964    0.39723115334407
H        -1.30941746929017    5.57040773948145    0.32114225460461
H         3.31838608979576    4.99012351405841    0.22934317717581
H         5.05151663961759    2.97350443808411    0.16517784170914
H         6.45406440381331    0.91468813645340    0.16008432354091
H         5.31018932640121   -1.29926765067652   -0.00753105882777
H         2.84739298300927   -1.36571831245272   -0.19811691155329
H         2.68985601649694    7.06778672420323   -0.01139655514603
H         3.35654648071314    8.75444413287745   -1.45905116437449
H         4.92579260814643   10.64429190683561   -1.59266776973972
C        -1.48023911225545    1.16945087810832   -0.63409831577362
O        -2.57502539535603    1.46918438914144   -0.74403876543981
C         0.14417546689935   -1.15594323823017   -0.61862918496355
O         0.02382705332693   -2.28961780091795   -0.69680116077953
C         0.72472179353774    0.97096154522349   -2.33646762647584
O         0.93633126532876    1.10422722484003   -3.44897548229772
C        -2.13079764978157   -0.75605418601880    4.33691597842159
N        -1.06717372014384   -0.16961100384364    3.57079995456758
C        -0.99881130591110   -0.05704751475618    2.23831847908398
N         0.10662688411796    0.52457284400696    1.81371381565141
C         0.82707075736993    0.82007357215606    2.95360560123858
C         0.08672832454512    0.37885869995632    4.07330994575454
C         0.54531210358250    0.52367669191802    5.37524415369477
C         1.77263993952532    1.12659222747770    5.54404776078310
C         2.51580415964980    1.57161676695337    4.44863559742222
C         2.06386371717365    1.42957713453418    3.15492185064314
H        -1.76705147363620   -1.63029979011722    4.87946033304626
H        -2.93387921907718   -1.05944823538719    3.66900329400188
H        -2.51698939760389   -0.03259576754822    5.05627783278557
H        -1.78004945123763   -0.41489275094985    1.59111411603956
H        -0.03391284306830    0.17684086109899    6.21564475317195
H         2.17071187110648    1.25829097131404    6.53750970686732
H         3.47306070807783    2.03861927546775    4.62256690479793
H         2.66532403887008    1.78229438885621    2.33394415289729
