58
 energy: -106.767737669141 gnorm: 0.000654634910 xtb: 6.4.1 (afa7bdf)
Re        0.35266472733693    0.69661498391224   -0.37288453755879
C        -2.51769396597210   11.61008489415001   -0.04216661812559
O        -2.00756131104322   10.28146651445580   -0.06513375449184
C        -0.72786348215804   10.14052964755363    0.27788170027314
O        -0.00644100639142   11.04936128071361    0.60018336303823
C        -0.27816083922489    8.71685863324182    0.22315628393623
C        -1.12508341371138    7.68520258430767   -0.17209126460901
C        -0.65791301564798    6.38673264394293   -0.21200818597138
C         0.66078250759548    6.11854991843702    0.14682328539045
N         1.10969511742717    4.78768947858506    0.08888717725256
C         2.37893656278029    4.31867265413755    0.07855587188504
C         2.24562557385499    2.94783850000597   -0.01428499648967
C         3.15726398729990    1.81774287774654   -0.04521713537119
C         4.53992777634819    1.94852543460531    0.01909173884835
C         5.31884730272027    0.80449676793623    0.02419130179770
C         4.68737853560658   -0.42909266116276   -0.02798555767594
C         3.30471098227431   -0.47445118827814   -0.09989690333446
N         2.54659859723878    0.61686764645022   -0.11187617273183
N         0.90888546852437    2.68881491615077   -0.04969862122664
N         0.24911993741075    3.78434011968626    0.01167647559967
C         1.51162817785651    7.14195854923155    0.55346292995526
C         1.03669910715642    8.43741396171660    0.58606070932049
H        -3.57339234413632   11.53401533767625   -0.28834714344340
H        -1.99549955816616   12.22747560422231   -0.77543430550419
H        -2.38238184181854   12.05026390444060    0.94753472163269
H        -2.14261584074974    7.90650908377570   -0.45061080767113
H        -1.29620782915830    5.57383044103319   -0.52052149818704
H         3.24335250950805    4.94524838715169    0.10965417558000
H         4.98560238725093    2.92923203267435    0.06309692820739
H         6.39401079319633    0.87480902440483    0.06955592824626
H         5.25388110889901   -1.34548727649559   -0.02000395642669
H         2.78764492752043   -1.42301733478854   -0.15368304887910
H         2.52691544904526    6.93832314972677    0.85546822169458
H         1.67220583995777    9.25343205477113    0.89462131842286
C        -1.55803887300761    1.07604823765778   -0.54287322052355
O        -2.65955983974941    1.35780514321025   -0.62578921962105
C         0.09174142225442   -1.22808012085913   -0.57128475499116
O        -0.01435389778245   -2.36241049223158   -0.65434331186741
C         0.61142073381181    0.90067679025626   -2.29863429872531
O         0.79596941939058    1.03791865841844   -3.41511846620601
C        -2.02758094268728   -0.88569244540052    4.44739461491691
N        -1.01528463209640   -0.24970681854973    3.65183362609276
C        -0.95667620414277   -0.19206714195709    2.31572055839167
N         0.09427311037094    0.46402332836965    1.86130859245152
C         0.78589977008985    0.87206926780961    2.98407796995302
C         0.08437371177536    0.42234955220230    4.12514731664407
C         0.52432178510550    0.67129617693797    5.41776999189673
C         1.69378756926563    1.38667975958582    5.55506770784063
C         2.40080394177570    1.83680817684629    4.43800269147360
C         1.96743396207620    1.59116092317144    3.15347873683586
H        -1.57378214879373   -1.62461508097167    5.10961936333945
H        -2.74272586577360   -1.38185502290423    3.79485561491532
H        -2.55087454273998   -0.14480249218445    5.05452092045142
H        -1.70355144500085   -0.64488736654429    1.68755711662460
H        -0.02582765980430    0.31881928026140    6.27513061150295
H         2.07464230976223    1.60345532960723    6.54026024068170
H         3.31449302252749    2.39126404826828    4.58777911784923
H         2.54266636472806    1.94754474294664    2.31528885665286
