64
 energy: -106.007161169885 gnorm: 0.000309486158 xtb: 6.4.1 (afa7bdf)
Re        0.39706062815565    0.66396312105608   -0.35919030936023
C        -0.73357674943621   10.13012010516682    0.27135838077055
C        -0.26052283923869    8.71360812361018    0.23650025047352
C         0.58539345038045    8.21357457756923    1.21505816968500
C         1.03958469876211    6.90238917717883    1.18635113152019
C         1.93812015847087    6.40112953028772    2.27808176806695
C         0.62334213179274    6.08944669774930    0.13234633738076
N         1.08552820357907    4.75402170418206    0.05648291892298
C         2.36557158535849    4.33555863590512   -0.01118459502887
C         2.27938635015870    2.95870757011188   -0.09179028975188
C         3.23963887542391    1.87139565568101   -0.14304457044847
C         4.60896152726121    2.10017802610063   -0.15569707853335
C         5.46076477773870    1.00921669242094   -0.15344720143094
C         4.90970011239322   -0.25756675374583   -0.12116763861105
C         3.52447978219116   -0.41905129213353   -0.11311304342667
C         2.93369409921570   -1.78658012646975   -0.08358418397506
N         2.70397069213578    0.63290465205624   -0.13320822085952
N         0.95642518065641    2.65383899030968   -0.06338377900047
N         0.25952066561047    3.72790985014028    0.02513600517887
C        -0.24574512702925    6.55225245415881   -0.86172523119862
C        -0.69181888928188    5.65904201731965   -1.97697045519313
C        -0.66858989731713    7.86766487211128   -0.78976564019048
H        -0.35891919445211   10.67089934808857   -0.59668261971236
H        -1.82082093972409   10.16707002025120    0.23695212217264
H        -0.39310144182869   10.63741439729990    1.16940546469039
H         0.89939095901220    8.85392355983774    2.02559184810178
H         2.98468260500407    6.57066238823431    2.02263566922697
H         1.73602180694215    6.94242496983862    3.19860226323318
H         1.79627257954548    5.33850013383486    2.46943119575733
H         3.19552758084013    5.00841277584153   -0.01953803597990
H         4.98628293301452    3.10943072258016   -0.16875466570516
H         6.53025341217490    1.14694868775134   -0.16939678339431
H         5.54230529341181   -1.12999443374272   -0.10621529158075
H         2.48198378408909   -2.01310655128436   -1.04999020444430
H         3.69434361270171   -2.53301315365458    0.12518955404049
H         2.15624808238896   -1.84879827001527    0.67700294963380
H         0.16061803404987    5.21081178952319   -2.48757574777316
H        -1.26707495538469    6.22375782953954   -2.70424807837557
H        -1.31471537165883    4.85206057432817   -1.59359011902134
H        -1.33235646001026    8.24711108401376   -1.55179463702454
C        -1.49586047495304    1.10363148085166   -0.52858916701394
O        -2.58690901798011    1.42418350417544   -0.61665770537530
C        -0.03033782161998   -1.23086436494281   -0.54633570300689
O        -0.33965563239505   -2.32904425904471   -0.63900752242708
C         0.68077937337441    0.82470660808455   -2.28251157831265
O         0.89072253931675    0.93942162466857   -3.39886505566611
C        -1.94638809936670   -0.68877657545111    4.55021253105943
N        -0.93742193147651   -0.10124324497221    3.71427451239558
C        -0.87589695130024   -0.13693786506672    2.37676699959324
N         0.17059632915470    0.49375921774521    1.87978079113677
C         0.85670093379866    0.98422007020760    2.97241653294701
C         0.15491876529349    0.61270372095576    4.14102211427671
C         0.58914432084440    0.96015755221927    5.41268950617470
C         1.75165767241564    1.69470511711709    5.49933946670359
C         2.46191495794494    2.06267754146007    4.35447452825348
C         2.03620807311307    1.71663875704772    3.09070715558222
H        -1.49511712959887   -1.41040849273568    5.23324250632122
H        -2.68115735303285   -1.19615001975686    3.92887306979983
H        -2.44604649717417    0.08413726157868    5.13652295122724
H        -1.61817856239529   -0.63812438841316    1.78070753614795
H         0.04030189609880    0.66639798656566    6.29277216353088
H         2.12657222414562    1.98817532377626    6.46685384146492
H         3.37301308199810    2.63059827436949    4.46564452539767
H         2.61649656668135    2.00264401654210    2.22942839094805
