58
 energy: -100.759668633459 gnorm: 0.000447700487 xtb: 6.4.1 (afa7bdf)
Re        0.42847056065109    0.49362902380826   -0.27253354527295
C         1.79063286665973    9.71551017279413    0.19911541904493
C         1.46521078013404    8.27698653313357   -0.09559335173611
O         2.25719894799180    7.36103499164472    0.00635267095976
N         0.18476130114953    8.06324730813810   -0.49586032113922
C        -0.27925937233920    6.75703409122488   -0.89323931206692
C        -0.58725396951936    5.84054137549912    0.31976866880790
N         0.17793228263210    4.62640969552743    0.27316070833335
C         1.51850989430399    4.49793638127788    0.29912473694095
C         1.73422026819611    3.13912403607078    0.17032584105093
C         2.91493683866878    2.29768119275963    0.13287016662586
C         4.19400697275168    2.83424700501177    0.20170506608224
C         5.27237407767602    1.96658453749747    0.19327552336237
C         5.02621051527162    0.60776808905126    0.12822554598527
C         3.71650683453469    0.13456631605812    0.05637884972248
C         3.45314665850274   -1.32994371640952   -0.01835365352836
N         2.67695628252946    0.97188828384705    0.05366410418788
N         0.51086985623409    2.55529140925874    0.07998197389420
N        -0.40755626195629    3.45089045951723    0.14130241989232
H         1.08371110119142   10.13125037857342    0.91325921510839
H         2.79638675617221    9.78419748645706    0.60279195354034
H         1.73857698505962   10.29713677822138   -0.71905760877254
H        -0.45472031467793    8.83867064278967   -0.54674776014344
H         0.50852526634492    6.28903541162122   -1.49393857487968
H        -1.16628266149905    6.87367390606339   -1.51390762301594
H        -0.34301105437322    6.37684208382520    1.24139734080198
H        -1.63711561032132    5.54518353713770    0.34218540753017
H         2.16829155481740    5.34798241925583    0.37557366694083
H         4.32494157573917    3.90225134039578    0.25790942735401
H         6.28156728731306    2.34383668143879    0.24087664424779
H         5.84173203666817   -0.09692003667408    0.12776537191290
H         2.74236558274971   -1.62560002978513    0.75275626902106
H         4.37047440341260   -1.89625106031054    0.11149170670592
H         3.02350822031227   -1.57909852369985   -0.98915081087343
C        -1.49523628037756    0.51230693017295   -0.58892267269148
O        -2.61865809916520    0.58949950139332   -0.77396680555721
C         0.43283502579349   -1.45035146598922   -0.44456132766373
O         0.37070225694579   -2.59095545819255   -0.51286173311313
C         0.79372441025499    0.71878740840960   -2.17565405076047
O         1.04253677807727    0.87595146714398   -3.27854295086026
C        -2.11128821827486   -1.07639693930793    4.47415858045675
N        -1.07404253227438   -0.44386769386727    3.70873638090466
C        -0.97096927854445   -0.39445272517504    2.37421555032704
N         0.09206458380622    0.26163458114405    1.95101745941622
C         0.74671098123301    0.67652895486698    3.09360754999862
C         0.00922199070969    0.23216891801472    4.21378440949504
C         0.40911632083743    0.48750025854414    5.51806697128791
C         1.57516284797755    1.20198730465048    5.68724710693577
C         2.31753418858743    1.64550875253920    4.59047493975442
C         1.92367400756714    1.39490930576853    3.29420437292843
H        -1.68316950162002   -1.83340584955357    5.13311805722089
H        -2.82137073399532   -1.55021653387935    3.79989814252050
H        -2.63424499863921   -0.33680901214342    5.08305657931697
H        -1.69390463606062   -0.85676584147640    1.72581160301940
H        -0.16699791755085    0.13873805443689    6.35987679051336
H         1.92611562795143    1.42190029113079    6.68289358388486
H         3.22787551516333    2.19803856607301    4.76516453159347
H         2.52349019863132    1.74460902427547    2.47112979444780
