55
 energy: -96.769732417522 gnorm: 0.000518793923 xtb: 6.4.1 (afa7bdf)
Re        0.44434842221635    0.85452540281072   -0.10683444241622
C         0.38209938411842    8.38122483361458   -2.66945097480027
C         1.50163270193995    7.95783297386900   -2.11632473681627
C         1.64012205037542    7.18122535338113   -0.83808810472761
C         0.32080894798006    6.90282417908555   -0.12410706714567
C         0.51616115865512    6.17635083203255    1.21099303813291
N         1.02455905592639    4.84621646678616    1.00678458623529
C         2.30502578428741    4.43055705719382    0.99570205016189
C         2.23387032615029    3.08510437663142    0.68072771219379
C         3.18693249764326    2.00206675913524    0.53901193837297
C         4.56152815873947    2.16003232915552    0.69579515922188
C         5.38320148255373    1.05466873435848    0.59293558310079
C         4.79358867056745   -0.17972484857528    0.33932834847132
Br        5.84025048347940   -1.75151564359206    0.20702588120492
C         3.41433018061949   -0.25895625919463    0.17953945397213
N         2.62685554324335    0.80239991416922    0.27317417576272
N         0.91217127361225    2.79668027309923    0.52557973960324
N         0.20990503230648    3.85173117448759    0.72176093626558
H        -0.59038933704858    8.20675570566296   -2.24327268188101
H         0.39613351645539    8.93587563232735   -3.59101661555729
H         2.44878031092326    8.16809133137067   -2.59602855882115
H         2.30301779759551    7.74431355476073   -0.17207316141556
H         2.14619131234526    6.23845734222074   -1.07705341923735
H        -0.18124359223215    7.84710135357448    0.08527817956485
H        -0.32932330135587    6.30135075032937   -0.76155955138737
H        -0.44527390718908    6.07916368172155    1.71934479200975
H         1.21504390766297    6.72198973623128    1.84850360538172
H         3.13134364020506    5.07555511763878    1.20570253682006
H         4.97267675012316    3.13626544597196    0.89628553942730
H         6.45188201897048    1.14105067208001    0.70803638828204
H         2.94430660912075   -1.20980207202583   -0.03186477133694
C        -1.46411091393357    1.20553290203270   -0.34638003100493
O        -2.56725343840703    1.46918485478434   -0.45809747349210
C         0.25756203691912   -1.03318678480153   -0.57391725567787
O         0.19085595885809   -2.14741497379586   -0.81214707754710
C         0.80718152494933    1.32470590877670   -1.96843059122267
O         1.05057607625349    1.61765807696793   -3.04247650454917
C        -2.22263688067765   -1.33530638388526    4.30679203273474
N        -1.16418819650593   -0.60785995536039    3.66420945144418
C        -1.01993715310499   -0.38267834667445    2.35281561227918
N         0.05807196515312    0.31751250548134    2.05285725269631
C         0.67753329971997    0.57213913532156    3.25978782237609
C        -0.09608086745626   -0.01205682140564    4.28776915580281
C         0.26063865165405    0.06793173129393    5.62673084410532
C         1.42010434338335    0.74881819370430    5.92720417027178
C         2.19942328272039    1.32725021607777    4.92303019046430
C         1.84857869777163    1.24997940158894    3.59296260398084
H        -1.82175589597719   -2.21531761247323    4.81317014011247
H        -2.94925312786666   -1.65218464544944    3.56162188614066
H        -2.71844650235847   -0.70184107799889    5.04408123058512
H        -1.72474598031991   -0.74683633416503    1.62620718959000
H        -0.34292591394211   -0.38541507806233    6.39618581159701
H         1.73717199577507    0.83621055166387    6.95402710786358
H         3.10413053409976    1.84692089792251    5.19891379580348
H         2.47815962335268    1.70105647818302    2.84407707699329
