55
 energy: -101.157527871969 gnorm: 0.000382858410 xtb: 6.4.1 (afa7bdf)
Re        0.31978323210572    0.49939847572289   -0.51778422948324
C         2.20266771635749    9.46155823429902    0.43077529094139
C         1.70310240054043    8.07086778467749    0.70709532114630
O         2.42260241466164    7.09937186126033    0.83511958911300
N         0.35189486214912    7.97094731820102    0.80481784147471
C        -0.31768794513794    6.74456601404533    1.16194055450068
C        -0.69928572792681    5.88044135034887   -0.06491970204502
N         0.06683510844529    4.66593128779761   -0.14042756865066
C         1.40526222853592    4.51952195824716   -0.13584373583028
C         1.60103869013163    3.15425082079673   -0.22215149382837
C         2.76050332534106    2.28547718863486   -0.22044113452291
C         4.06806499097223    2.75901876979068   -0.14271946273140
C         5.10810384307961    1.85187131892715   -0.09354805363510
C         4.79767817734629    0.49575468879065   -0.12001272093621
Br        6.15900052394260   -0.81767469326519   -0.03446471853959
C         3.46863777087284    0.09795014625454   -0.20911162729286
N         2.47045754504347    0.96837336952809   -0.25975847116353
N         0.36518584130125    2.58303672308406   -0.27126569216478
N        -0.53637543514939    3.49322935531811   -0.21992000815091
H         3.27438375470046    9.43363265867994    0.25738520652746
H         1.70499511367037    9.88471585514306   -0.43859320390602
H         2.00188795703409   10.09899354675149    1.28959572516422
H        -0.21014935566928    8.79644478300127    0.67573293988629
H        -1.21472700700262    6.99064485218522    1.73035437367609
H         0.35973073223065    6.17498291240318    1.80655050080404
H        -0.53758342906909    6.46010210006294   -0.97926875208959
H        -1.74545762028383    5.57258654949868   -0.02574416151779
H         2.07894463088182    5.34860752749998   -0.03354239574565
H         4.25326854611771    3.82086924208458   -0.11571130603839
H         6.13328109229467    2.18083893195581   -0.03290429855380
H         3.21492337234565   -0.95290601997474   -0.24187378323116
C        -1.62344521852601    0.38798784813818   -0.69330345793569
O        -2.76075007375672    0.38069984478886   -0.77628149683246
C         0.54177679065317   -1.43772540538860   -0.62315832109481
O         0.71281680099756   -2.56642569946754   -0.64793122276480
C         0.52958947956813    0.66922152546138   -2.45283471029617
O         0.67759582037010    0.78947704224897   -3.57634900001897
C        -1.65194942968715   -1.38580251425775    4.37700299106530
N        -0.80878573383845   -0.56669761519960    3.55230411833907
C        -0.75745290719426   -0.55086524951081    2.21471725985013
N         0.11533304025059    0.31212191583118    1.73001749641457
C         0.68785722792389    0.91382305330362    2.83298540933567
C         0.10324900619546    0.35956117365265    3.99394483632258
C         0.46680116881779    0.75433090126372    5.27396634076617
C         1.43830464952177    1.72573764754940    5.37852198881827
C         2.02767116399796    2.28313139430927    4.24179353605664
C         1.66972900659771    1.89333896588384    2.96970887104264
H        -1.04365877719040   -1.99203188468111    5.05003658308866
H        -2.24883485833897   -2.04134414179936    3.74670550435158
H        -2.31739291968724   -0.75962144518160    4.97386876282350
H        -1.37536616979731   -1.18965269794639    1.60853372514494
H         0.00919386101720    0.31731633258107    6.14668153149516
H         1.75404625845093    2.06251367026209    6.35297438559030
H         2.78743443538979    3.03963507302247    4.36416300686725
H         2.15145702845799    2.34196035335413    2.11740303836495
