55
 energy: -100.051554267629 gnorm: 0.000493726679 xtb: 6.4.1 (afa7bdf)
Re        0.41911147830704    0.82882864837018   -0.21793543470895
Br        5.87225698992143   -1.67356664674618   -0.18101676744593
C         4.80342822256667   -0.12331400247058    0.01224915707000
C         5.38166513620560    1.12296459350327    0.23179423465457
C         4.54506476630947    2.21170527189099    0.38140919974023
C         3.16738746915666    2.02603598941675    0.30130867590911
C         2.20304299490862    3.09185055692511    0.49084813273605
C         2.26636305121705    4.43509610388763    0.81362847089854
N         0.98026171168072    4.82811451177991    0.87901789181269
C         0.47591604392210    6.15296437304634    1.14387540158250
C         1.07846948013437    7.14440891148336    0.17779540956394
C         0.83727736598476    7.00735025030281   -1.18431079789808
C         1.39583317074759    7.89993541292796   -2.08116997529798
C         2.19544549176224    8.93472653312734   -1.62343166332261
C         2.43754504676971    9.07423711362957   -0.26760482296717
C         1.88524830660643    8.17783828648123    0.63175468136393
N         0.17051382011981    3.82543819803795    0.61784676359028
N         0.88112758084438    2.78222048531086    0.38660049910472
N         2.61723100082333    0.81534273485432    0.06756568483396
C         3.41929560747024   -0.23057502029158   -0.06885530359067
H         6.45327276786783    1.23095376877226    0.28500779962630
H         4.94605863366298    3.19692404964807    0.55693773696168
H         3.08550443120991    5.10107831453032    0.98185022208233
H         0.71395628626912    6.42879106078496    2.17551449223649
H        -0.60970810769394    6.09680338757110    1.02983741358239
H         0.20480396306299    6.20589220164447   -1.53989852946685
H         1.20166147488875    7.79093935205481   -3.13686671804166
H         2.62588167342873    9.63399250322293   -2.32306422552535
H         3.05618343870433    9.88129130370562    0.09312100975181
H         2.07252963332956    8.29150024460538    1.69000419643459
H         2.95725337377763   -1.19106231592078   -0.25249792882236
C        -1.50229185691525    1.14591684381705   -0.39098280327195
O        -2.61371568562254    1.38731511105713   -0.46642484700344
C         0.24782019217472   -1.06722032548406   -0.65562577172859
O         0.19236563647607   -2.18641538270594   -0.87365606884637
C         0.70081519092221    1.28326252813309   -2.09722677882860
O         0.89330133435403    1.56756683718301   -3.18398231377986
C        -2.07630843648969   -1.29601273842381    4.32682025265253
N        -1.04189516823518   -0.58104518022024    3.63322785658691
C        -0.94320113079001   -0.38200743890824    2.31339680660559
N         0.12098129555538    0.31579293838041    1.96282331747409
C         0.78039816971354    0.59651214665782    3.14251472209140
C         0.04398637420976    0.03151216579152    4.20791643544902
C         0.44542930357291    0.13970834424439    5.53215838326487
C         1.61253009604105    0.82902736363543    5.77911112107531
C         2.35611789416303    1.38781240490266    4.73732096898128
C         1.96088896348010    1.28245584208013    3.42163324437753
H        -1.64947604283169   -2.13963753626394    4.87185403196712
H        -2.80511785533420   -1.66633564524005    3.60911963975243
H        -2.57691718506291   -0.63641075087380    5.03758393471837
H        -1.67027235259698   -0.76399268416798    1.61857880790245
H        -0.13068106501757   -0.29891948155960    6.33067061126365
H         1.96406331907010    0.93787704989711    6.79261824222771
H         3.26877382555235    1.91393033358846    4.97168292607408
H         2.56470487963670    1.71730007839189    2.64238237456707
