81
 energy: -149.844742185662 gnorm: 0.000412728037 xtb: 6.4.1 (afa7bdf)
Re        1.75035877249071    1.66951760718331   -0.00002765599243
C         2.57726117589375    5.39968222976173   -4.17301205535555
C         1.44217235358068    5.82343724319891   -3.25648191237918
C         0.42481782246305    4.70488905628019   -3.07247720331028
S         2.13909866631336    6.25268687410657   -1.57642042016294
C         1.25512523984974    7.86035703748805   -1.48597439763714
C         0.06568330089642    7.93793550997089   -0.49776405088363
N         0.01772694420668    6.94092851391840    0.52391909528827
C         0.01258469553002    7.25995147944443    1.82785444399601
O        -0.05260334113171    8.37350967435828    2.27983119487757
C         0.06579819946538    6.03719106472512    2.78734980537185
C        -1.33734061460958    5.49720612223424    2.98852872716612
C        -2.03256593770759    4.87060844528771    1.96003725755995
C        -3.31180070424598    4.38783461218119    2.18110614765172
C        -3.91163785802295    4.53713231033335    3.42093293574073
C        -3.22705725208507    5.17351439136111    4.44278943314092
C        -1.94444238425890    5.64853941953218    4.22928755709664
N         0.96867663389388    5.01334693220599    2.33654743150280
C         2.09656181276660    4.58812000593639    2.93716645235779
C         2.54473037862966    3.54460022196541    2.14627637831834
C         3.64488220553548    2.60415555313452    2.19799887609420
C         4.69865542841437    2.69348524149951    3.10386277434582
C         5.70778510368162    1.75236776105537    3.05614025780637
C         5.63320351912637    0.75766927100686    2.08551271062792
Br        6.97252561096557   -0.57197519265911    1.94284562068579
C         4.55207052587337    0.73652249598824    1.21191438843931
N         3.57262392663897    1.62650297820021    1.27414392109439
N         1.65820607841364    3.42434162135643    1.12477587126361
N         0.73266390577331    4.30562573607386    1.24635504912887
C        -0.79108878183748    7.66266585550010   -1.75646620456103
O        -1.93298239820579    7.39591262325913   -1.97215629689052
N         0.30654574046140    7.81321731982480   -2.56617527073020
C         0.72496971723640    7.11871605158542   -3.74696078888563
C         1.66581214049245    8.02731043956066   -4.53925724081029
O         2.43491254463995    8.80174449305309   -4.04498387474324
O         1.51640953295249    7.84981581530168   -5.84554385565012
H         3.37100234418214    6.14374527720534   -4.17951277833308
H         2.20458986042966    5.27125784709501   -5.18737870501180
H         2.99784344760172    4.45673289970482   -3.83528754508264
H         0.08115144993272    4.35136480189019   -4.04204887138860
H        -0.43851713957924    5.04850989676990   -2.50574118131528
H         0.87852635445777    3.86917367407559   -2.53984883263011
H         1.97605314680391    8.67572610264846   -1.51148718540785
H        -0.08558527841272    8.91704978668439   -0.03881273970320
H         0.14912022753422    5.98045976738559    0.22581280058652
H         0.44463695680326    6.42085048983395    3.73971079522644
H        -1.58981418491747    4.75985203618891    0.98285599027562
H        -3.84438235225039    3.90795034226099    1.37421349790380
H        -4.91289151235797    4.17034189909711    3.58562128873010
H        -3.69186725863477    5.30630792314290    5.40715148108615
H        -1.42128635816408    6.15317137741655    5.02771179367759
H         2.48019118075472    5.02151923767940    3.83576352374355
H         4.72291459417038    3.49320109105342    3.82619595153015
H         6.53763292635870    1.78843421214626    3.74382517554286
H         4.48969887582181   -0.01839103776190    0.43926131960801
H        -0.13651655892728    6.86248708478325   -4.36749037407286
H         2.10504181247364    8.43306796325055   -6.35375153152123
C         0.04292330578509    1.91459131072265   -0.91570079945249
O        -0.99143564070616    2.08546209108896   -1.36525377042368
C         1.91608188134173   -0.13903622831433   -0.72948874354870
O         2.03300345635784   -1.20996381344529   -1.10153397046674
C         2.83986769894369    2.39442587159692   -1.44822352118742
O         3.54265640463939    2.79735464178224   -2.25031186687334
C        -2.03887021724036    1.23292253658064    4.17212941515829
N        -0.87351203998316    0.88592547006204    3.40740165530041
C        -0.43842390567506    1.47939167919874    2.28605733752366
N         0.65248113362887    0.92865575178962    1.79521794910010
C         0.95585932440057   -0.11835980676216    2.63879758922427
C        -0.00506342364304   -0.14873330773412    3.67081562154149
C         0.03684079148826   -1.09541582112757    4.68545711474530
C         1.06249974660262   -2.01529763956100    4.63873057430303
C         2.01063231908664   -2.00338815973867    3.61123699450089
C         1.97428016403779   -1.06716854289510    2.60170263703135
H        -2.76686257282245    0.42054670193013    4.13662937738343
H        -2.48960118976034    2.13570730021622    3.76229955360745
H        -1.76393282416166    1.40932164326279    5.21327025572437
H        -0.95088410443191    2.31853231215797    1.84820896000434
H        -0.70411513868192   -1.11511583791487    5.46821308769492
H         1.13175054630006   -2.77054549713074    5.40529034154139
H         2.78476826235464   -2.75450293275465    3.60722077857223
H         2.69344878298772   -1.08159621127081    1.79842245501021
