62
 energy: -107.384312158438 gnorm: 0.000527797425 xtb: 6.4.1 (afa7bdf)
Re        0.36745283851734    0.83111786403737   -0.21460209602933
C         4.67571253902147   -0.35727861430298    0.24523732869983
C         5.31402903344118    0.86517651383174    0.39221968172419
C         4.54454334929313    2.01489253587235    0.42075340882833
C         3.16439581965811    1.90165572292186    0.29482563087544
C         2.26230929697832    3.03722151335722    0.35997388894388
C         2.40258681888597    4.39968356716345    0.54940502137582
N         1.14242081266684    4.87583971404726    0.55069159630564
C         0.71244646027712    6.24363133485137    0.61743904302714
C         0.67244469149600    6.87161943580372   -0.78806583603044
C         0.16898236792495    8.27277832530959   -0.70313675916155
C         0.89543847126024    9.42412513648642   -0.81667205168752
N         0.08246217954358   10.50680394722089   -0.65551397599933
C        -1.19490647379236   10.07802613173179   -0.43146227580812
C        -2.36331183374963   10.79692619419830   -0.21150803987392
C        -3.52284901687419   10.08035525846610   -0.01271888510545
C        -3.52725436636353    8.68238872514323   -0.03509160005562
C        -2.37382777452605    7.96412500578365   -0.25191918441745
C        -1.18252908711711    8.66361800704905   -0.45084444260808
N         0.27655205590449    3.89986188106346    0.37230758752744
N         0.92635903658522    2.79860255875825    0.25846185434745
N         2.54804469966329    0.71282632764168    0.13321548756014
C         3.29712866069750   -0.38471496722332    0.11348793188909
H         5.23438584441791   -1.27828966996347    0.22592710071360
H         6.38701118371280    0.92210255014799    0.48455715572349
H         4.99432752826272    2.98770222566698    0.53804327778490
H         3.26099772858506    5.02386136176989    0.67721581806185
H        -0.29016975788089    6.25829921640413    1.04760669837523
H         1.39503525875101    6.80189440192275    1.26105359961589
H         1.67312507464615    6.86070962372666   -1.22551323171345
H         0.00801214679664    6.27412402460012   -1.41678628998790
H         1.94321075737286    9.54755183988942   -1.01559771672046
H         0.37149433679827   11.46794743055379   -0.72054213329504
H        -2.35985096587602   11.87621214450833   -0.20081582521714
H        -4.44983180253278   10.60523990863828    0.15968822397719
H        -4.46023591861598    8.16137373530169    0.11873431571703
H        -2.39361626546058    6.88408714667193   -0.27874402202315
H         2.77583729771285   -1.32366636320952   -0.01542545668707
C        -1.53245487759470    1.23508072772770   -0.44058821997070
O        -2.62985449564777    1.52219607836653   -0.55321048866939
C         0.10329663898548   -1.07516428844098   -0.53823850186190
O        -0.00558567033934   -2.20227167595394   -0.69214631118991
C         0.70606351991420    1.14725039043306   -2.11170784062484
O         0.93345710249690    1.34903219460170   -3.21084457969193
C        -2.21195544207888   -1.04939938072214    4.39078474901666
N        -1.16800737530429   -0.36351930093460    3.68230881167783
C        -1.06336560834336   -0.20294656055658    2.35716247108822
N         0.01417046508941    0.46372005219687    1.98973993723229
C         0.67522235524168    0.76803949298828    3.16242416511895
C        -0.07067043961753    0.24284482249850    4.24162411980878
C         0.33338198370497    0.37698422703589    5.56259655464113
C         1.50974962120260    1.05642439126331    5.79246892377693
C         2.25793205900981    1.58360417207463    4.73765451669656
C         1.86124986978803    1.45076217971357    3.42496123370396
H        -1.81886344817575   -1.95120642047041    4.86427848808391
H        -3.00053751848778   -1.32709364721040    3.69469667792705
H        -2.62745423505188   -0.40047334991758    5.16271799203632
H        -1.79827636878633   -0.58759175180828    1.67210582806305
H        -0.24776189109480   -0.03488208522662    6.37172838147910
H         1.86348738444930    1.18442306742653    6.80300212436483
H         3.17464041266331    2.10816263403547    4.95953743755652
H         2.46586393200296    1.86586633503418    2.63588770110923
