60
 energy: -112.011566118686 gnorm: 0.000234036192 xtb: 6.4.1 (afa7bdf)
Re        0.62941731581867    0.57450757047677   -0.27586294656607
C        -3.01858634818182    6.76201873791265   -1.73419362829668
O        -2.13395877698592    7.80386281157824   -1.38093826480367
C        -0.92008483749947    7.49662080166568   -0.90682504661734
C        -0.42246322224555    6.21237728447772   -0.72281342568400
C         0.86241597306062    6.02165326199030   -0.21699489299527
N         1.30645265384893    4.69797728001013   -0.05810260996173
C         2.55058541901491    4.24649974012469    0.22317958919453
C         2.42866784407970    2.87131803689939    0.24345532208462
C         3.31774799135558    1.75411060197066    0.49552755113125
N         2.73829873456136    0.54606132222051    0.39878635526559
C         3.46579297880908   -0.53761170818446    0.64714862064973
C         4.80239806405564   -0.46371146874663    0.99913233894434
C         5.42043011363496    0.77082970958342    1.09683035893782
C         4.67259854703379    1.91962010350808    0.84552043128980
O         5.12606773229732    3.18377683967052    0.91559791857556
C         6.48921553916523    3.40118198359378    1.23793580153253
N         1.12300079234851    2.59209855732067   -0.02291215377750
N         0.47017345338621    3.68099904326868   -0.19874331071155
C         1.67493427980238    7.09443652778132    0.11816037995911
C         1.19141259338331    8.37987358622388   -0.06526767836801
C        -0.07665235387021    8.57301745970158   -0.56752765186018
F        -0.52849011136567    9.81893629789607   -0.73805889810765
H        -3.92334179921836    7.25670408556847   -2.08100128937375
H        -3.25528032156283    6.13184640846002   -0.87231040701931
H        -2.60861260019232    6.14684514827711   -2.53987095625297
H        -1.01111507578854    5.34387294587842   -0.96678268973670
H         3.40423442105251    4.86991355354220    0.36581625514725
H         2.96700763493015   -1.49187867159165    0.55735506890144
H         5.35745440371146   -1.36686085698937    1.19188083897768
H         6.46227959585996    0.83295117938109    1.36445722622976
H         7.14918636385111    2.94401389358921    0.49711893333443
H         6.72682654184219    3.02101478331983    2.23456605588645
H         6.62352224408497    4.48073106219215    1.22237817088970
H         2.66271480164152    6.95306953399122    0.52279214305208
H         1.79323892056982    9.23937435639106    0.18110583999177
C        -1.22013453726591    0.91814820682873   -0.80184384730307
O        -2.29185317105713    1.18819186381349   -1.08614460306449
C         0.40732778953512   -1.36229414863931   -0.37385268427099
O         0.31620932641982   -2.50116931745306   -0.39691022757454
C         1.22717466888130    0.63020892592013   -2.13457677849392
O         1.60505198889792    0.67632071648365   -3.20917528131905
C        -2.48727805111976   -0.81566684874084    4.17171023263922
N        -1.38691820123567   -0.16754956207580    3.51505542690375
C        -1.09249118445339   -0.20003502387320    2.20926766362454
N        -0.01819766753780    0.49756250764022    1.89298057429073
C         0.43391015752990    1.03466236726572    3.08121274477687
C        -0.43263661037252    0.61556707605361    4.11570796121191
C        -0.24894823086314    0.98839902914080    5.43993937094923
C         0.82926665752778    1.79944011411403    5.71886150935914
C         1.69540975040214    2.22272042956077    4.70844190622861
C         1.51728815696956    1.85367861816546    3.39313738981145
H        -2.11785122255899   -1.48872998132298    4.94703250002486
H        -3.05761293489512   -1.38837666555217    3.44356977555036
H        -3.13992572972576   -0.07303099861018    4.63380571523681
H        -1.68704056673293   -0.74821364431983    1.49972487952431
H        -0.92150700872193    0.65715366264947    6.21449780382178
H         1.01146705428731    2.11508098705948    6.73371135357668
H         2.52834034403184    2.85799784752242    4.96811620445184
H         2.20679171579041    2.19610703542065    2.64001906025186
