56
 energy: -100.556769977245 gnorm: 0.000268954479 xtb: 6.4.1 (afa7bdf)
Re        0.05339427555990    0.78460004806183   -0.41324594198521
C         6.16226519927485    3.46299965120086   -0.74720072213104
O         4.77931936465606    3.25691062059585   -0.51540596708890
C         4.27752223572730    2.01754798108785   -0.66368931127449
C         5.00910145815277    0.87570391208973   -0.98464984099348
C         4.34732593037987   -0.33585290756077   -1.08523933913302
C         2.97964065028067   -0.39178819293791   -0.87978704702670
N         2.26423496832044    0.68733926474719   -0.58081045913808
C         2.88982188982085    1.87136762848061   -0.46766167253913
C         2.02647375663982    2.97608972765483   -0.09974646674205
C         2.20468271663382    4.31190983455498    0.20063748565962
N         0.96697552434321    4.76196187252003    0.50869460615953
C         0.56493923760866    6.05716796580386    0.88198938919059
C         1.49419185956517    6.99425143118659    1.31833241930924
C         1.06131016653554    8.25872302602850    1.67481851324615
C        -0.28330191211895    8.58520491875455    1.60242738180802
C        -1.20507475945756    7.64257236171155    1.17441498524444
C        -0.78744323575812    6.37612290643431    0.81176964633441
N         0.08295881149947    3.78259732108670    0.40919854670585
N         0.69830571714864    2.71768286190558    0.04916323649563
H         6.32754736373070    4.52739010187750   -0.59434610857775
H         6.43607779180668    3.19807917543164   -1.77096067717450
H         6.77229899783949    2.89629048852145   -0.03944038164553
H         6.07240183137328    0.92522715445594   -1.15174575331944
H         4.89109794327074   -1.23413013902271   -1.32669127569903
H         2.44304538916669   -1.32597001767761   -0.96091880969386
H         3.08242491091386    4.91829648193453    0.18733776635562
H         2.54081793369082    6.74439806053224    1.39498622002585
H         1.77878698659717    8.98948191154713    2.01373866703566
H        -0.61196748027825    9.57372001677211    1.88188131067105
H        -2.25233455749524    7.89416588574409    1.11898092812108
H        -1.48855950265488    5.63049021578311    0.47216973741869
C        -1.84885627024297    1.18396401497601   -0.21805018535503
O        -2.94325252367672    1.47998552510952   -0.08899466139523
C        -0.27454582392787   -1.11216892525624   -0.73995846907497
O        -0.41766021676678   -2.23463292664472   -0.89828504992168
C        -0.02271291850318    1.17953279795479   -2.32419112985595
O        -0.03521261665891    1.42703780525482   -3.43718377018612
C        -1.65668773281994   -0.91842139672625    4.64477382390354
N        -0.71746463666867   -0.34285450787502    3.72370878508679
C        -0.85789018024419   -0.22205477639459    2.39746644818219
N         0.17142909580496    0.35501132377153    1.80813530086625
C         1.06682450866448    0.63161756435780    2.82120384891673
C         0.50508489904038    0.19436448444999    4.04187891514823
C         1.16075876316562    0.33419316769076    5.25710536413043
C         2.40588035705456    0.92357632334651    5.23341006549580
C         2.97976685860307    1.35196518506300    4.03449769306381
C         2.33278798726535    1.21392972150988    2.82600743786381
H        -1.21883610665837   -1.78951974043210    5.13524958026951
H        -2.55121302862214   -1.22386211396768    4.10638759679459
H        -1.92984421809811   -0.18699068684818    5.40698279229608
H        -1.73286468130694   -0.57178165201173    1.87862548184075
H         0.71483892056117   -0.00637695938605    6.17756684277315
H         2.95254155895434    1.05360007047558    6.15375822196962
H         3.96095926956993    1.80098756870347    4.05725544186231
H         2.81044027271417    1.54301556355677    1.91847955969766
