58
 energy: -103.219801603922 gnorm: 0.000349710235 xtb: 6.4.1 (afa7bdf)
Re        0.44063417617555    0.78026407701171   -0.31209478669411
C         0.59924229350526    6.49966615816275    2.24716600778551
C         0.54439159294443    6.17969882869032    0.75629958111734
C         1.32092302458311    7.11498870163774   -0.14924718985615
C         2.22239268847764    8.05606419075386    0.32674934170893
C         2.91545243141049    8.86559308728977   -0.55894249142436
C         2.72207438770242    8.73670241391792   -1.92272877775404
C         1.82703102187866    7.79526059783363   -2.40449721454801
C         1.13059145249762    6.99024415008378   -1.52267377445621
N         1.04090944371575    4.83174257576128    0.54166634291397
C         2.32142086660432    4.42020971212576    0.51787280456692
C         2.24394942811715    3.05955482988276    0.28317038037499
C         3.19666570338829    1.97238188440784    0.17519943079525
C         4.57458283482053    2.14416588983952    0.27958085843495
C         5.39837350060658    1.03738611059405    0.21799720567891
C         4.80746214765790   -0.21183107714713    0.05716207592062
Br        5.85768757318501   -1.78539789491137   -0.01227750226229
C         3.42466602644931   -0.30519055852250   -0.05545985889254
N         2.63494017767126    0.75739775006354   -0.00082333261815
N         0.91933287666071    2.75978404049057    0.18682433966687
N         0.22065404281680    3.82495162277124    0.34246391970014
H        -0.03391561834432    5.80563097856328    2.79620111154839
H         0.23083223994972    7.50691785571752    2.41675261513970
H         1.61332892721015    6.42245684512716    2.63314118750279
H        -0.50350322090765    6.15153847352017    0.43570186217430
H         2.38501039836828    8.17809854286313    1.38593591850543
H         3.60747399303734    9.60039175140665   -0.17711678744352
H         3.26253605744520    9.37032309779755   -2.60837873919939
H         1.66631281099586    7.69158762937268   -3.46632212966721
H         0.42562451802992    6.26218534568561   -1.89999441612830
H         3.14775040827906    5.08639653335077    0.64458337410772
H         4.98549611364326    3.13269471437775    0.40709586612245
H         6.46964094253233    1.13397123054134    0.29474575438840
H         2.95338213402070   -1.26854383006683   -0.19554769392009
C        -1.47759610873636    1.10456951152591   -0.50519482739240
O        -2.58750425549506    1.34913072122931   -0.59248872862282
C         0.25120832526320   -1.13314682110243   -0.65479907463186
O         0.18402968385031   -2.26092713867109   -0.81911193221064
C         0.73507525488542    1.13741845351344   -2.21031469247366
O         0.93670204155986    1.36467164858929   -3.30871982206081
C        -2.04242490439013   -1.17789862312459    4.31286780738549
N        -1.01994479622055   -0.47075137415918    3.59395546029019
C        -0.92059189786309   -0.32521267790054    2.26710553366161
N         0.13186152846706    0.37650447319247    1.89030269719955
C         0.78151921188560    0.71945413736500    3.05882062982868
C         0.05324524378858    0.18438615847049    4.14511367858712
C         0.44944684571805    0.35398083886003    5.46451352913627
C         1.60132738091259    1.07695990795246    5.68544114785319
C         2.33487261320392    1.60979583053249    4.62323275214484
C         1.94551620338082    1.44251470083662    3.31225952287474
H        -1.61084543012912   -2.02764718032336    4.84513978372461
H        -2.79352308809877   -1.53891530681741    3.61347162687734
H        -2.51706123307740   -0.51441185129370    5.03746266593200
H        -1.63931683325781   -0.74785272917343    1.58725630397219
H        -0.11904331490623   -0.06470887731548    6.27901751111644
H         1.94839465757097    1.23360031491563    6.69420201826801
H         3.23491452202668    2.16539446823458    4.83752995453251
H         2.54092695453336    1.86025215569175    2.51755917072635
