52
 energy: -96.889691819345 gnorm: 0.000870179107 xtb: 6.4.1 (afa7bdf)
Re        0.42069817159506    0.66110342800436   -0.35974440661418
Br        5.81829331060652   -1.91160198704009    0.16431567053785
C         4.78050912257361   -0.32993808153680    0.09350023993036
C         5.38155793896906    0.92395884224180    0.13932700500568
C         4.56667866034893    2.03841471564714    0.10425383416333
C         3.18695610169775    1.86942274436315    0.01967063825499
C         2.24275804909509    2.96821888365286    0.02512464669413
C         2.33301308321298    4.34473517627540    0.10487852456947
N         1.05200839539233    4.77681620143430    0.07773578351625
C         0.55614769925911    6.09372839804401    0.10761892244919
C         1.41399265843731    7.18427959719015    0.20059836605694
C         0.88434100744113    8.46200171180003    0.21554805476242
C        -0.48565164653060    8.65462293513633    0.14022133438659
C        -1.33541259528208    7.56309629139037    0.04911083829499
C        -0.82138195308107    6.28069881650501    0.03174058192148
N         0.22431944038490    3.74679235491792   -0.00701010643564
N         0.91605985948380    2.66929055177135   -0.04071031365899
N         2.61545548451453    0.64739667260221   -0.04753934218332
C         3.39659921638736   -0.42191012755431   -0.00745712007519
H         6.45381543461692    1.01836762171150    0.20310644868070
H         4.98688992565925    3.03033055363408    0.14301484342280
H         3.18084420889623    4.99071483035170    0.16804052125244
H         2.48289484568645    7.05462866325528    0.25903590195026
H         1.54784647263920    9.30960850932668    0.28485570869764
H        -0.88929970864725    9.65465830710213    0.15098744256789
H        -2.40213667706416    7.70965603047387   -0.01141096195961
H        -1.46738406695066    5.42089243583434   -0.04430287024311
H         2.91736909869843   -1.39005875760074   -0.05866586531019
C        -1.48964046759987    0.99644497102896   -0.60075920110654
O        -2.59177714358932    1.25833130666259   -0.72902072954383
C         0.21102903760172   -1.27392893091044   -0.52982232310598
O         0.13332482494668   -2.41107931694914   -0.58867896855694
C         0.72968732776772    0.84221266244092   -2.28122313941104
O         0.94039029426629    0.96007648557146   -3.39478684071503
C        -2.12339181365158   -0.85420186571014    4.39740170683687
N        -1.06536441368362   -0.26251533369363    3.62742764443821
C        -1.00296207835064   -0.14970626611472    2.29522121496918
N         0.09788247525557    0.43914891099379    1.86637878873422
C         0.82041088383820    0.73901225398036    3.00368923228774
C         0.08719070250128    0.29233176087867    4.12595900637495
C         0.55069750500249    0.43896457819729    5.42598090163728
C         1.77511706436650    1.04897319445519    5.58978123974528
C         2.51027168958738    1.50112877944662    4.49182515789200
C         2.05327030504617    1.35808082183247    3.19997537595547
H        -1.75429097009890   -1.72748929222111    4.93671994956620
H        -2.92828161497335   -1.15968183434133    3.73333845084045
H        -2.50887242206871   -0.13373645737022    5.11936031979929
H        -1.78404779180414   -0.51310710364466    1.65099834070337
H        -0.02215961133746    0.08771457406796    6.26883374626906
H         2.17702399938687    1.18137786604109    6.58149004227279
H         3.46484612231322    1.97455353612836    4.66261923434801
H         2.64667755723991    1.71883738034848    2.37627952912817
