65
 energy: -110.071032876928 gnorm: 0.000242684720 xtb: 6.4.1 (afa7bdf)
Re        0.55599022348949    0.59240506541878   -0.24726573344004
C         6.48331266962325    3.36261386512579    1.09651383867018
O         5.11458560997314    3.15712660309524    0.79405626261791
C         4.64511438102173    1.89654265871746    0.74999375394438
C         5.38169245690138    0.74304496390607    1.00851264431056
C         4.74580963654196   -0.48497097758388    0.94018012023973
C         3.40302132034821   -0.54629013046626    0.61238454970346
N         2.68551242717071    0.54328727308152    0.35807487202517
C         3.28311612029850    1.74408206064636    0.42274614231177
C         2.40704324163453    2.86957631922360    0.16500658778090
C         2.55018879248209    4.24162291795811    0.09319005390953
N         1.30700486805973    4.70105529501315   -0.15829122073931
C         0.91208128604404    6.04478513170339   -0.35816303680926
C         1.17966187075062    6.99718540920227    0.62674984686076
C         1.84521900271776    6.64154532893023    1.92316584685776
C         0.79897988000386    8.30801736652938    0.38378070997273
C         0.16652587523366    8.67867346255864   -0.79548635310166
C        -0.24645236880579   10.09651190545753   -1.02172770582792
C        -0.09787351803293    7.70064172502165   -1.74592435883440
C         0.25990695138976    6.37701947566010   -1.54956820706209
C        -0.03024810894911    5.34222437574053   -2.59132900492907
N         0.44840822309681    3.70376871121938   -0.23390061768713
N         1.08718784466824    2.60771529929365   -0.04507703077086
H         6.63009411290729    4.44018229448323    1.06351581579955
H         7.12907872027043    2.88691268258357    0.35471546293612
H         6.72887408098117    2.99377416837724    2.09560459262946
H         6.42832208974389    0.79530180508684    1.25916463364316
H         5.29222398866515   -1.39226951330992    1.13812175224079
H         2.88994819498244   -1.49494685712712    0.54661591791766
H         3.40850962307006    4.87070576405358    0.17420427527768
H         1.53389817520559    7.33555257551427    2.69952373882541
H         2.92934844119616    6.71599850291049    1.83230344241539
H         1.59427655067500    5.63248842099950    2.24619519853785
H         0.99799550656930    9.05679984425228    1.13581985361880
H         0.46897657402612   10.78546150976419   -0.57964247576648
H        -0.33982825181053   10.31143077473852   -2.08267657166707
H        -1.21499655544827   10.27569736677538   -0.55462807198596
H        -0.59395250617882    7.97605877703549   -2.66418538397145
H         0.86365813446817    4.77125982698074   -2.84175040232754
H        -0.78374740276422    4.64241986179997   -2.23267445547116
H        -0.39988693083893    5.81345519321167   -3.49700380484681
C        -1.31302355542727    0.94882774452334   -0.69410446214174
O        -2.39591720369098    1.21805780112859   -0.93082986485514
C         0.31150404344659   -1.34196148053744   -0.31906636888177
O         0.20840821757962   -2.48058949719520   -0.32924742367614
C         1.07263228527045    0.63240185461516   -2.12875833281325
O         1.40366535826473    0.68155860301633   -3.21944873719160
C        -2.31459434608425   -0.78956869502187    4.36440176292059
N        -1.27031152829543   -0.11504701159996    3.64588751026690
C        -1.02176575896532   -0.18122348883817    2.33148681761920
N         0.00670566058202    0.55145510010573    1.95114096309113
C         0.47499370076181    1.15229135472175    3.10186206412440
C        -0.33333025599202    0.73263336259797    4.18235982689303
C        -0.12067508471480    1.16295112100690    5.48460858119166
C         0.92615200030937    2.03379755812394    5.69413637389121
C         1.73502489090664    2.45832974783973    4.63785470711855
C         1.52888387742634    2.03118602673892    3.34438612339884
H        -1.88625159715520   -1.42177273231176    5.14391469746991
H        -2.88605594978582   -1.40862027076801    3.67620721500817
H        -2.98191906661767   -0.06213700265449    4.82973564085016
H        -1.61661719332839   -0.77985973683607    1.66429317467863
H        -0.74869262425947    0.82990196357718    6.29502143548027
H         1.12843354619549    2.39580176976583    6.68953678089579
H         2.54562883824004    3.14080023396924    4.84358512683265
H         2.17603151404567    2.37460857045768    2.55501991003452
