62
 energy: -106.889008802162 gnorm: 0.000880166817 xtb: 6.4.1 (afa7bdf)
Re       -0.05001163974704    0.63222298321932   -0.63185942826361
C         6.06333056953687    3.16392592678517   -1.51826055300467
O         4.68079838929391    3.00773047479883   -1.24977757879073
C         4.16888777311496    1.76512670486943   -1.19482598856534
C         4.88488500998279    0.58010070359340   -1.35148214343747
C         4.21167700334241   -0.62513340739314   -1.24933994310520
C         2.84970676910530   -0.63394305156533   -1.00377416256198
N         2.14906962605105    0.48631659638236   -0.85906024349218
C         2.78493617807150    1.66533617092523   -0.95078613680832
C         1.94215773389720    2.82454009095859   -0.73366606141555
C         2.14532396056135    4.18625306808819   -0.62527599463045
N         0.93127758837187    4.68703927965920   -0.32368938891913
C         0.63160690689837    6.06844694173936   -0.00329316464227
C        -0.87604617378790    6.26895515898452    0.08916953960181
C         1.32588295508716    6.41657628117215    1.29823682666735
C         2.09094368496910    7.56926667898851    1.40245530065302
C         2.71527844385727    7.88531559070793    2.59680706666517
C         2.58548474502778    7.04751834510339    3.69123256329631
C         1.82445110857150    5.89481983459268    3.59142228390887
C         1.19556140655192    5.58044935762541    2.40042598090081
N         0.03638286464837    3.72899354548929   -0.24265019726987
N         0.61980008157439    2.61208643834599   -0.48848220655939
H         6.67343261721829    2.70641471640395   -0.73539067344135
H         6.23730807036011    4.23785523960399   -1.52991468382403
H         6.32858221256068    2.74381790686376   -2.49116771121248
H         5.94430228127855    0.59197466738222   -1.54768809075661
H         4.74235126498624   -1.55594257310516   -1.36323493749584
H         2.30532661405407   -1.56391398314546   -0.92569777493600
H         3.02170004772861    4.78644585367819   -0.73369364402274
H         1.03997219655432    6.68719052584941   -0.81134926598694
H        -1.35776195499807    5.98150082780287   -0.84163148200466
H        -1.29109646846488    5.66925904646028    0.89400754376880
H        -1.08567316577974    7.31594588816864    0.28818378531604
H         2.19391045372637    8.22497700433053    0.55008994209691
H         3.30528603324090    8.78569560149509    2.67027781331669
H         3.07435282917526    7.29396308850378    4.62099231234619
H         1.71477025394559    5.23902552917930    4.44194956363883
H         0.59853468869476    4.68093765941715    2.33218223211708
C        -1.94265825735238    1.05317802920551   -0.38772049361043
O        -3.03308627913451    1.34957318803809   -0.22983299100021
C        -0.38766004109645   -1.28876405322454   -0.68087199632836
O        -0.53316114761643   -2.42256195659246   -0.68632882259232
C        -0.21515902423009    0.75263140208642   -2.57348100479322
O        -0.27629547415203    0.83563427472782   -3.70896570858773
C        -1.49681876203337   -0.53625767801077    4.64973579964327
N        -0.64670483685793    0.02881992574959    3.63971867214469
C        -0.76415062567123   -0.11539397900163    2.31340344108041
N         0.16164067825743    0.52751781865361    1.62824221248116
C         0.96080307014145    1.13743599050267    2.57393317589736
C         0.44486263205682    0.83315824111179    3.85406632563584
C         1.01966035032432    1.31265278056544    5.02284117280591
C         2.13753642171472    2.10757893002001    4.89152889518379
C         2.67273511552577    2.40100554197020    3.63541036914935
C         2.10668528481444    1.92416926541547    2.47333603948553
H        -0.90949334682676   -1.15024971247441    5.33437594004059
H        -2.25744771959080   -1.15460581787067    4.17801580316405
H        -1.98389225384290    0.25714941949861    5.21937042740426
H        -1.54629892113275   -0.70385894902835    1.86694541816022
H         0.60907248800229    1.07075818469170    5.98984938684696
H         2.61685843976578    2.50340575277353    5.77295194098288
H         3.55658082760626    3.01735795928293    3.57386891811678
H         2.55884242209309    2.15274872991750    1.52299377950116
