58
 energy: -99.663264169768 gnorm: 0.000380498375 xtb: 6.4.1 (afa7bdf)
Re        0.39523968125463    0.69935509057222   -0.39800227810568
C        -2.67508104902840    7.89458240288684    0.08796164555294
C        -1.20308535233250    7.63689156088173    0.11013390729902
C        -0.30464775878705    8.69608368074321    0.17278513597328
C         1.06929994182369    8.49104539808061    0.20135660210535
C         2.00489745660959    9.65488713317333    0.28035100433017
C         1.55561192629598    7.19107146489138    0.16912116899387
C         0.66600502351109    6.12581589382612    0.10782833945383
N         1.12779566270992    4.79724953042825    0.06126488361455
C         2.39728739453376    4.33249647483360    0.08222977835156
C         2.27261109538270    2.95973101894811   -0.00943896953074
C         3.18960190727504    1.83482175468551   -0.02227836008770
C         4.57042815220531    1.97252921133946    0.06923801442146
C         5.35534249928918    0.83319869574209    0.08800406440165
C         4.73196818419085   -0.40387411337210    0.02012506825592
C         3.35142051557333   -0.45667188707432   -0.07921897325819
N         2.58728702311966    0.63028030405321   -0.10297718256034
N         0.93993675867555    2.69511906397764   -0.07445555811603
N         0.27472735198475    3.78997551421275   -0.03036354537731
C        -0.70698980033775    6.34236974462475    0.07782673707241
H        -3.00739582245731    8.23700321536198    1.06756320752878
H        -3.22689226184672    6.99462210005229   -0.16777530672033
H        -2.91519971692359    8.67371430955216   -0.63201036590660
H        -0.68407288754395    9.70691655405588    0.19588500458184
H         1.67801359370752   10.45394279740116   -0.38058275764526
H         2.01929927781331   10.05056722448442    1.29577049212736
H         3.01797559142769    9.36794756581154    0.01149645766384
H         2.62199305115532    7.03061275548500    0.18572882254418
H         3.26092113782450    4.95635427590732    0.15192332643687
H         5.00900146059828    2.95589463942474    0.12417464002441
H         6.42902285471578    0.90931015710905    0.15537502094267
H         5.30345082280709   -1.31702038765061    0.03714464795969
H         2.84083237081224   -1.40796374529020   -0.14532072271361
H        -1.37251775592872    5.49595232751457    0.02234163314876
C        -1.51124396995667    1.08038384877179   -0.59823161352783
O        -2.61008814671141    1.36916164642851   -0.69804523473535
C         0.13919176659369   -1.22720411478871   -0.58008948869198
O         0.03072093638442   -2.36267871634368   -0.64945532671829
C         0.68386886475314    0.88846405457169   -2.32047489224981
O         0.88689845483439    1.01321120774554   -3.43549240687329
C        -2.08737875546927   -0.82706202962807    4.39011533007627
N        -1.04927031331486   -0.21320526511991    3.61074968640381
C        -0.97670742721547   -0.14317084601507    2.27556949699765
N         0.10000644113497    0.48078982731267    1.83754587390528
C         0.79573886525902    0.85177727505275    2.97038105379640
C         0.07016355398897    0.41260438063907    4.10058628104208
C         0.50949111014292    0.62897125166517    5.39919807051690
C         1.70208811889853    1.30142646812330    5.55360308107714
C         2.43166221523722    1.74241498085763    4.44745443119404
C         1.99910735509086    1.52908092284155    3.15693254077060
H        -1.68396181675878   -1.66344696593768    4.96401529726017
H        -2.86934787282106   -1.19293997214403    3.72800394654978
H        -2.51504699855406   -0.10035028544302    5.08264249326962
H        -1.73342417460659   -0.56311767024896    1.63656052884240
H        -0.05782785193039    0.28345058903133    6.24822173975837
H         2.08349311667789    1.49119409161507    6.54417344133261
H         3.36246033860808    2.26364203041280    4.61062480484095
H         2.58994485960366    1.87900756395210    2.32703528237167
