66
 energy: -119.014384679759 gnorm: 0.000461690068 xtb: 6.4.1 (afa7bdf)
Re        0.31944614790739    0.82129666524678   -0.29818011124045
C        -7.21581849742417    9.82013309733728   -0.86656732761392
O        -6.67322234461230    8.69721710875952   -0.20880576009059
C        -5.33153402297453    8.54764724980759   -0.16373166129237
C        -4.40465835869093    9.41781660853439   -0.73376938858473
C        -3.05174898332892    9.16454731040860   -0.61294966054730
C        -2.58172922809437    8.04081177040161    0.06094365541987
C        -1.14550613962966    7.78039321332209    0.18908190514829
C        -0.23364839604162    8.82249670938183    0.37511744499674
C         1.11815535073742    8.56837909182984    0.51049228995347
C         1.60285705707653    7.27273308766779    0.46660133471151
C         0.70209467897418    6.23053243628912    0.27574537887787
N         1.13915851988741    4.89372985990498    0.21182536974427
C         2.39961117380307    4.40643841630817    0.20808830340555
C         2.24773025237048    3.03574106107030    0.11125266028060
C         3.14060194486619    1.89518605355306    0.08131655914012
C         4.52642775889869    1.99809973276416    0.17543152607732
C         5.28841980094450    0.84662864083945    0.19431158506824
C         4.63013792274505   -0.37679070675435    0.12097364852624
Br        5.59292907380699   -2.00640822114366    0.16751279314282
C         3.24435437297102   -0.40258752284127    0.01163092678413
N         2.51380626795230    0.70235160014405   -0.01043614280208
N         0.90868796261396    2.79652561591620    0.06684202042752
N         0.26576759726643    3.90308389961385    0.12919095348446
C        -0.65744193712268    6.47758851633958    0.13632659421260
C        -3.51814294817391    7.16794599008287    0.62090464492892
C        -4.86568450849123    7.41815289354855    0.51759553017898
H        -6.95455683650323    9.82688904785296   -1.92905124331400
H        -6.88658817310180   10.75426407351178   -0.40171525644555
H        -8.29525987128381    9.72731682823440   -0.76224360510843
H        -4.72648102804205   10.29325015406673   -1.27464818899725
H        -2.35155224255536    9.84147009946622   -1.07954356898686
H        -0.59241365661462    9.83796857707537    0.43400183909631
H         1.80683716724982    9.38543531406762    0.65938087971391
H         2.65916890236541    7.09361253574071    0.58500155627096
H         3.27547833604073    5.01528299099547    0.25698569533950
H         4.99142588279872    2.96879031532686    0.23593892754690
H         6.36346800665183    0.88984507724238    0.26684762677528
H         2.72096695968396   -1.34632397481196   -0.06067974314768
H        -1.32542433828702    5.64854875934917   -0.03333124066944
H        -3.18216202451510    6.30092216899986    1.16989201908087
H        -5.59188049119944    6.75460716762639    0.95919645685963
C        -1.57935122971567    1.24680835359836   -0.48293548840257
O        -2.67235794883994    1.56012697324375   -0.56740883394762
C         0.02378244082900   -1.09480178482214   -0.53457939407671
O        -0.10472395546889   -2.22482805209637   -0.63732950174593
C         0.60309353969522    1.05593911475336   -2.21738061394246
O         0.80262791820226    1.20492952092538   -3.32938119589829
C        -2.13917330094758   -0.84223146026352    4.45274602489045
N        -1.09869719318104   -0.21972226293700    3.68340828534971
C        -1.05393037887613   -0.07682694534141    2.35330379240607
N         0.03345892777029    0.53630228600473    1.92465528648363
C         0.76501561759266    0.82246810055839    3.05961487853191
C         0.05153512661198    0.34146080489372    4.18038174801166
C         0.52716274118347    0.46756456063419    5.47817020053325
C         1.74404666112250    1.09257823871753    5.64176337289516
C         2.46000146920188    1.57832494228789    4.54548534692530
C         1.99086665431963    1.45531167628203    3.25590550973784
H        -1.74757123074227   -1.71309308681129    4.98106860937805
H        -2.94098544047762   -1.15845433828337    3.78919484028717
H        -2.53666799548633   -0.13761662381573    5.18471183545784
H        -1.83793823868348   -0.43569621248430    1.70992400379443
H        -0.03172175001330    0.09036739435844    6.31920403089230
H         2.15482627902059    1.21092703045642    6.63163891356809
H         3.40908753559385    2.06306394979406    4.71546417159594
H         2.57015464020121    1.84291150731625    2.43442595080488
