55
 energy: -98.414216573654 gnorm: 0.000807864808 xtb: 6.4.1 (afa7bdf)
Re        0.38630741668601    0.40974798779379   -0.54356151339765
C         3.41852723711063    9.17769818866850    1.00604427672695
C         2.25805865486694    8.25920757323091    1.11231242439924
C         1.41013208577926    7.98610985226423    2.14573337386762
C         0.47327460099009    7.04132261036462    1.66138202138011
C         0.81097928318999    6.80509730217309    0.36255642723118
C         0.22434031557005    5.91279844200224   -0.67809988374749
N         0.78319374299351    4.57912631224336   -0.60191119384575
C         2.08380300819832    4.23001568164681   -0.57440235833334
C         2.07067080952895    2.85066344344630   -0.48846931628889
C         3.07760434203926    1.80962376740437   -0.38128793618504
C         4.44234015960306    2.07064653169149   -0.33343477297489
C         5.31975882494978    1.01076244810112   -0.18521149213574
C         4.80078292069744   -0.27131007905519   -0.08426200781448
C         3.42859439705759   -0.44865210820052   -0.14997400715289
N         2.57631524083465    0.56064327138381   -0.29666658690766
N         0.76114559112390    2.47742128107433   -0.46874787364849
N         0.01074823750436    3.51606839192324   -0.53321629891631
O         1.90479097757960    7.53540326105055    0.02726661214529
H         3.60286349953797    9.64714220020014    1.96683198585542
H         4.31124114040933    8.63826850249160    0.69270983747906
H         3.22015459199637    9.95143435084796    0.26547566165083
H         1.44106064534546    8.41006103439935    3.12748383587232
H        -0.34486633818967    6.60906497915276    2.19999107614032
H         0.43185828121469    6.32588160895435   -1.67048208111245
H        -0.85327722053694    5.80549125312273   -0.54357334383948
H         2.87597032939183    4.94662410468908   -0.62123021059891
H         4.79758285931447    3.08556136994367   -0.41173271448538
H         6.38387213068030    1.18203081558691   -0.14806373629143
H         5.44622362270784   -1.12535340236917    0.03747540108619
H         2.99860789557013   -1.43911657605865   -0.08556577567815
C        -1.55404079726553    0.58147953755017   -0.72111775864530
O        -2.68058036554950    0.73212250561926   -0.80626072639360
C         0.30551676483264   -1.53941839678804   -0.51556382991234
O         0.30477219930857   -2.68144049417699   -0.47221550245579
C         0.60827919341407    0.40920202146607   -2.48430672468425
O         0.76433285980860    0.42301118658659   -3.61360795358882
C        -1.78527730297204   -0.86379302544994    4.46191619825454
N        -0.85850033680623   -0.20649357328033    3.58369726112929
C        -0.79231917298507   -0.31783714473920    2.25110174349179
N         0.15801821737675    0.41795381530089    1.70660809643625
C         0.76870888869206    1.06716344095393    2.76020897501794
C         0.12512389833062    0.67591115736689    3.95581327459029
C         0.50756853740465    1.15696169179028    5.20026992105124
C         1.55746361920183    2.04857062007966    5.23212942887598
C         2.20608847367653    2.44385033271457    4.06019836745764
C         1.83100854972819    1.96664601024988    2.82346360245353
H        -1.24437853188825   -1.42051894219341    5.22844106265012
H        -2.40200838944310   -1.55224577133125    3.88831166064371
H        -2.42844092222276   -0.12906905686630    4.94981633969348
H        -1.45785255080787   -0.95357672794945    1.69403485414167
H         0.00414421711116    0.84529988840442    6.10108631485712
H         1.88919021286963    2.44895651384518    6.17677030959494
H         3.02610879206451    3.14221580579765    4.12771005983227
H         2.35929066239573    2.28672620485971    1.94095619497470
