52
 energy: -97.542386309014 gnorm: 0.000345875871 xtb: 6.4.1 (afa7bdf)
Re        0.40051472637420    0.63070663544086   -0.37747461369203
F        -0.91925641457458    9.84320944119609    0.28017559402723
C        -0.42950843588753    8.60277114019398    0.23650419739726
C        -1.28054547309417    7.54951473499294   -0.06343259574369
C        -0.76805584430214    6.26951465717851   -0.10828194531364
C         0.58479306098096    6.05519531393607    0.14824688496525
N         1.06969728561660    4.73725911442433    0.09092123180843
C         2.34837787914921    4.29418777393758    0.09598980971779
C         2.24488243264291    2.92056718539268    0.00063604377212
C         3.17975381158014    1.80947364423080   -0.01938929577915
C         4.55835323265302    1.96822412943511    0.06665183457260
C         5.36029234999600    0.84027632428061    0.08432442787715
C         4.75496452539687   -0.40570067711948    0.01949907225012
C         3.37472053381084   -0.47919333081686   -0.07513629885642
N         2.59453770950895    0.59624243009099   -0.09629360010093
N         0.91517513262463    2.63364131253974   -0.05239995088574
N         0.23170752191575    3.71507312832797    0.00280752542757
C         1.42728088927490    7.11980562244704    0.45359189576745
C         0.91745219669420    8.40285728085222    0.49607430550284
H        -2.32277696346367    7.74141524040851   -0.25977366499734
H        -1.40052588896954    5.42846410789254   -0.34248703052386
H         3.20123998215919    4.93511878304079    0.14340653487462
H         4.98306589181542    2.95777886575501    0.11910271657849
H         6.43284008207357    0.93248579527141    0.14906393038714
H         5.33983569743705   -1.31035510398821    0.03585197841653
H         2.87815933041428   -1.43802779596562   -0.13868508044820
H         2.47234565593636    6.96425020318599    0.66763356587134
H         1.54810560369117    9.24546384425395    0.72884589430868
C        -1.51371804758097    0.97845816727607   -0.56940021001981
O        -2.61774857053314    1.24673360376298   -0.66423992886010
C         0.17409007609660   -1.29975305386521   -0.56550183021350
O         0.08480938800914   -2.43601735718510   -0.63923349992266
C         0.67440987929607    0.82535207633294   -2.30233077528379
O         0.86407641420966    0.95060793250250   -3.41935494490644
C        -2.05661723028926   -0.90214027824535    4.42184159382726
N        -1.02675659839192   -0.28328479845672    3.63532007045546
C        -0.95279873852367   -0.23018255222299    2.29977853628052
N         0.11510186703564    0.40514358417478    1.85523688286422
C         0.80316858552387    0.80088254142448    2.98435363473275
C         0.08161177445306    0.36661902989230    4.11889786022237
C         0.51427012256539    0.60882696495577    5.41525387788741
C         1.69642831506587    1.30094103853656    5.56265789277321
C         2.42353906853998    1.73456387019105    4.45197643371534
C         1.99738658596965    1.49604291732601    3.16377868681790
H        -1.64161191785344   -1.72511685028671    5.00656836563782
H        -2.83297283302196   -1.28752750914408    3.76440799379344
H        -2.49488126001152   -0.17286498641663    5.10480946207934
H        -1.70133382817017   -0.67073289169238    1.66502008191770
H        -0.04997032526035    0.26765492322460    6.26799695228831
H         2.07209034248940    1.51148965845004    6.55115518256233
H         3.34739065977842    2.26962148245259    4.60959234031134
H         2.58738475917015    1.83878568619032    2.33027297386055
