81
 energy: -146.265817230071 gnorm: 0.000441336365 xtb: 6.4.1 (afa7bdf)
Re        0.44074468697423    0.52963405172468   -0.53799040560225
C         0.15860278445925   13.00389717993979   -0.42259552255460
C         1.01591203254248   12.33478064159678    0.63686885637591
C         2.31494321194816   13.10086978457674    0.85432779760000
S         1.46736508116956   10.61459362628467    0.06761825604366
C         1.58925098620122   10.07907509512918    1.80892218195468
C         0.84746718580624    8.77888037139483    2.20366914273382
N         0.43497478916371    7.92146207100102    1.13565911384585
C         0.93989018723474    6.69051728988542    0.95444094590595
O         1.71859689453834    6.13813484013169    1.69753380130762
C         0.41383570850324    6.02122065352919   -0.33433853735271
C         0.80308515041880    6.80890648382871   -1.56923920981897
C        -0.03660138594860    6.80304868117395   -2.67573211804846
C         0.31250700226639    7.50823354447574   -3.81398948573393
C         1.49901603737638    8.22137973090681   -3.85259078576448
C         2.34094027916683    8.22428692206860   -2.75349409945342
C         1.99801812365061    7.51675602514003   -1.61509110104298
N         0.93600352329087    4.68235106523340   -0.39109822533846
C         2.22512413083597    4.30334688805033   -0.33665300871081
C         2.17534965321654    2.92215330207643   -0.33145357046675
C         3.15303271615820    1.85543982459421   -0.21880513868414
C         4.51925915866939    2.08463470054701   -0.09797121239861
C         5.36594861767696    1.00187641842139    0.05896216349800
C         4.81641085231568   -0.27117713461957    0.09518780702874
C         3.44578515192157   -0.41584806682880   -0.04007370489584
N         2.62282675809073    0.61632309535590   -0.19544717407721
N         0.85908134591135    2.58029873181536   -0.38374342153574
N         0.13471230079280    3.63764443668636   -0.41434692551902
C        -0.24609480831118    9.74721188428915    2.71495612021854
O        -1.36206581672850    9.63090060164358    3.11744835664112
N         0.55327591717865   10.83221705733751    2.47268343915499
C         0.21482597255365   12.13115476050264    1.95963590114998
C         0.50154516714444   13.26071792008551    2.94794711168354
O         0.05002848079670   14.36385952096006    2.83595852942088
O         1.30624331761466   12.87677137019041    3.93257506211505
H         0.73283515016142   13.15266764679690   -1.33382659325290
H        -0.71393812011755   12.39872780639277   -0.65922477496732
H        -0.17341784199089   13.97289546435015   -0.05541346565075
H         2.90985168896304   13.07627413933614   -0.05605477714361
H         2.90155275705352   12.66838123721094    1.66263676941423
H         2.10121231696732   14.14069486706683    1.09321277196486
H         2.60190059812167   10.22045731255329    2.18946430068118
H         1.35100384488522    8.17678434147598    2.96187951714254
H        -0.14408066386348    8.33443506640958    0.41806134889353
H        -0.67534253617868    5.91567625063556   -0.27482208607210
H        -0.96279671402948    6.24789754426087   -2.64467493674796
H        -0.34540645252037    7.50203877082928   -4.66894642526485
H         1.76682333743444    8.77540946060906   -4.73857332138578
H         3.26441290688484    8.78084974110397   -2.77737819840593
H         2.65492198296042    7.53142670279620   -0.75728083673702
H         3.03725836057798    4.99579936435715   -0.30567918125487
H         4.89666705543223    3.09403014706312   -0.12502779344754
H         6.43034695393152    1.14802614679203    0.15333571081699
H         5.43746689635104   -1.14251401162001    0.22137850608304
H         2.99250584840749   -1.39793642860763   -0.02613520655999
H        -0.86271803891488   12.16167320698127    1.75259962650597
H         1.45080156190987   13.60237223830433    4.56247782940443
C        -1.48579920884637    0.75810326597834   -0.78058349696686
O        -2.60396663170719    0.94762439203733   -0.89876584057068
C         0.31323492461246   -1.41661594256503   -0.56655591976560
O         0.28092187650439   -2.55953842724995   -0.55090344426823
C         0.74654057905779    0.57362321089656   -2.46581147799807
O         0.95380042673711    0.61818176307014   -3.58673851073208
C        -1.93844625683631   -0.84528278824113    4.34241490559746
N        -0.97858870051846   -0.16596066221545    3.51856455381576
C        -0.84310420679123   -0.26321617066301    2.19010694573141
N         0.12368226190667    0.49000371556289    1.70171166360872
C         0.67077791222871    1.13850628916445    2.79125002174747
C        -0.02776632500868    0.72675439596989    3.94834120102260
C         0.28023205741034    1.20342407097311    5.21477906086756
C         1.31128640582670    2.11264476420734    5.30828727458810
C         2.01421235897992    2.52779796732009    4.17536183752189
C         1.71421974468826    2.05329417604189    2.91756415911852
H        -1.42848249443496   -1.40273812180230    5.12956461437677
H        -2.51584008414015   -1.53596401367434    3.73160506495273
H        -2.61577746443160   -0.12483313062721    4.80490258708952
H        -1.47178034111003   -0.90123431172001    1.59414462370663
H        -0.26597512548890    0.87698442657577    6.08506292715496
H         1.58352095184860    2.51252783439992    6.27206807931423
H         2.81350490084581    3.24353037524252    4.28754770381398
H         2.28287235088729    2.39326553684966    2.06916274229739
