52
 energy: -100.464121928708 gnorm: 0.000453003107 xtb: 6.4.1 (afa7bdf)
Re        0.37734981411208    0.65680232109511   -0.35719181461916
Br       -1.09174945918691   10.41933947440508    0.20665056445872
C        -0.41001340106635    8.65177646260745    0.17038367268383
C        -1.24266279330811    7.59968499523848   -0.19109071374252
C        -0.74327616336343    6.31419266467952   -0.21767678304514
C         0.58897302311927    6.08205140924592    0.11812469746311
N         1.06583465762218    4.76187465440628    0.07763647633954
C         2.34295380501644    4.31536722448764    0.07947068511966
C         2.23367924470706    2.94024427943862    0.00241266515674
C         3.16333033329085    1.82802651528101   -0.01241887030717
C         4.54546496023513    1.97768594614395    0.06653505714114
C         5.34484124639441    0.85180341459041    0.09577707948782
C         4.72611603588057   -0.39350982468953    0.04967835683100
Br        5.74111545806849   -1.98991216574279    0.11125713431286
C         3.34025167011423   -0.46539228180105   -0.04409476339375
N         2.57411684248740    0.61476883419768   -0.07780368090558
N         0.90187225317579    2.65725019815320   -0.03658251946141
N         0.22305127455768    3.74198170092313    0.00868078808681
C         1.41911349481300    7.13666263762579    0.48628107544110
C         0.91733007243648    8.42292851075951    0.50998884037695
H        -2.27156664593082    7.78901748788213   -0.45270641822708
H        -1.37087854724630    5.48364232132211   -0.49885810823018
H         3.19748000846212    4.95535439836615    0.10858295581313
H         4.97981945037741    2.96359606236532    0.10494433298215
H         6.41860683120464    0.93128607163941    0.15511089107529
H         2.84730403171108   -1.42673967890375   -0.09538402191621
H         2.44670673925514    6.96914577492160    0.76737223038528
H         1.55184303888149    9.24733907923404    0.79405391981976
C        -1.53670401646666    1.01518683669362   -0.53192344901988
O        -2.63874582623441    1.29508688281675   -0.60936357390205
C         0.14298275523976   -1.27171874846216   -0.56575948865700
O         0.04937589573727   -2.40532461281170   -0.65884277237645
C         0.63789997033310    0.86441000202309   -2.28354616426648
O         0.81808997531667    0.99702800668757   -3.40065205156490
C        -1.98381480760895   -1.02817227142038    4.43501945814346
N        -0.98262965562155   -0.36343744639853    3.64869888541561
C        -0.92774075286504   -0.28136516610186    2.31422578042614
N         0.11199686531282    0.40011720076166    1.86955165556262
C         0.79840101705100    0.80003634557978    2.99835618765193
C         0.10666125497374    0.31812061185924    4.13222818673070
C         0.54550346207548    0.55060641373111    5.42831079160588
C         1.70415750746334    1.28127416253815    5.57625168620925
C         2.40110309941912    1.76372755718058    4.46629763325255
C         1.96796483987812    1.53595268630133    3.17840871657262
H        -1.51790735539342   -1.77124269975861    5.08351302056281
H        -2.69286084093929   -1.52373048430894    3.77582872839039
H        -2.51662513628498   -0.30584195796542    5.05554959564564
H        -1.66774757737739   -0.73578410810876    1.67910679732086
H         0.00263266652895    0.17451921595163    6.28019999380936
H         2.08411897733838    1.48562759141468    6.56439156865111
H         3.30638519343783    2.32952292336645    4.62447529988171
H         2.53336521285190    1.91977657055006    2.34536778483382
