55
 energy: -101.986642836747 gnorm: 0.000515015230 xtb: 6.4.1 (afa7bdf)
Re        0.46123172551460    0.74963877757504   -0.19786592340416
C         3.54885775935753    9.29451040122357   -0.74333350957594
C         2.29825175270653    8.49783173707600   -0.79860733785008
C         1.31029164470482    8.42616194765859   -1.73613225665905
C         0.35026407322773    7.50852630697327   -1.24458838734936
C         0.81501997964096    7.08727180196898   -0.03572661796456
C         0.27179376563421    6.12292623030986    0.96365095558326
N         0.83746133258187    4.80390201008922    0.76932647272663
C         2.13863439040563    4.45800315737982    0.76092446882210
C         2.13513048494867    3.10280889753769    0.48537937134162
C         3.14366260291762    2.06825910229866    0.36540978461206
C         4.50990098060191    2.30689215184127    0.48987577309793
C         5.38964245675793    1.24502007906480    0.41137069047652
C         4.86475734585559   -0.02847436333480    0.21539272029215
Br        5.99388687040216   -1.54493621455008    0.12203176598313
C         3.48968700575510   -0.18880632842056    0.08412556428449
N         2.64643390658142    0.83096927456438    0.15296001313792
N         0.82920775610448    2.73973520658274    0.35119193652860
N         0.07315533026401    3.76213004126289    0.52055462237012
O         2.00781815347030    7.67792172447189    0.23744948747222
H         3.52090672041219    9.98424159143284    0.09950745084182
H         4.41493273898983    8.64625398280758   -0.61643421935637
H         3.66023532801311    9.86238040577188   -1.66114812941593
H         1.26597009701177    8.96210092553812   -2.66079914984514
H        -0.56239742167233    7.21295067109468   -1.71947159719699
H        -0.80805090845549    6.01932188945154    0.85008118562108
H         0.51097698111874    6.46295698292455    1.97639176101238
H         2.92453706437932    5.16155207164471    0.93660458773965
H         4.86889502307387    3.31131116862856    0.64634364287462
H         6.45382370511371    1.39379040581509    0.50196637546617
H         3.06949294475579   -1.17122809721605   -0.08336635543667
C        -1.46621877789628    0.97979667750075   -0.43240187842121
O        -2.58472870424510    1.16699682563574   -0.54654430511241
C         0.37685354174321   -1.16456359742000   -0.57611705569100
O         0.37319691490548   -2.29184501866453   -0.75651559661553
C         0.77411444140644    1.15621023945885   -2.08361740674452
O         0.98274670385014    1.41032397016600   -3.17456068479254
C        -2.07639537091830   -1.33688094978418    4.33952043465752
N        -1.04518038625328   -0.60997248945502    3.65351247583620
C        -0.92597606670012   -0.43340121639609    2.33219224654278
N         0.12309811159950    0.29031971800132    1.98878253964447
C         0.74854281039634    0.61550057774570    3.17546630263409
C         0.00856958568576    0.04838310079275    4.23730313573570
C         0.38036385616425    0.19417403878589    5.56657264916597
C         1.52101660428818    0.92336505671004    5.82231122352621
C         2.26702599767253    1.48604428658384    4.78445504339834
C         1.90073377281791    1.34429424557167    3.46389424711693
H        -1.63487824209140   -2.11750501431607    4.96009318603199
H        -2.74318356813325   -1.79376806615948    3.61175049263369
H        -2.65092095726776   -0.66392860953788    4.97793373688613
H        -1.62572703587517   -0.85305366881721    1.63113217982071
H        -0.19815435140557   -0.24608037578054    6.36242047049805
H         1.84947981054019    1.06146013347084    6.83995735258466
H         3.15805783588936    2.04503069803795    5.02586383726169
H         2.50466988366205    1.78527849842542    2.68835922718265
