52
 energy: -93.317990822430 gnorm: 0.000551382799 xtb: 6.4.1 (afa7bdf)
Re        0.38698315640721    0.62623180842929   -0.36606261284977
C        -0.39502221751703    8.63725521898032    0.21487099801782
C         0.91247289618914    8.38509298692005    0.59774925041911
C         1.41127703456109    7.09520981067398    0.57488411231690
C         0.58686226453659    6.05640494778073    0.15813951695600
N         1.06150952614363    4.73287934807170    0.10746461999279
C         2.33888233080408    4.28934832058452    0.10106315863201
C         2.23290241566354    2.91547828749490    0.00845557541610
C         3.16745442260180    1.80494355914717   -0.02601933905647
C         4.54694685907042    1.96456447624953    0.04479105604656
C         5.35025551771657    0.83776335661920    0.04277144653604
C         4.74551211015786   -0.40855238488050   -0.02332863754348
C         3.36445001061942   -0.48294913295271   -0.10007071342928
N         2.58275613052489    0.59180259747166   -0.10472163578780
N         0.90247184667783    2.63020994925599   -0.03047892755078
N         0.22117025134796    3.71386722996300    0.02903186916564
C        -0.72928439409321    6.30091352568828   -0.22073081258502
C        -1.21422082017840    7.59458526744495   -0.18923509381241
H        -0.77499826156441    9.64642936732561    0.23381329390625
H         1.54907363184984    9.19450279608047    0.91871138733281
H         2.42525976627153    6.90893269792088    0.89232965447368
H         3.19084333339374    4.93266502303757    0.13418639812221
H         4.97089797488683    2.95433274303464    0.09968744327441
H         6.42352025756951    0.93065329173332    0.09311105893625
H         5.33165838270291   -1.31252176356801   -0.02213400626794
H         2.86813811238919   -1.44188034566744   -0.16398871167532
H        -1.34926458974572    5.47753994598534   -0.53766100973882
H        -2.23279897312816    7.78862347105003   -0.48517988465883
C        -1.53108198067234    0.96760061279715   -0.52975198159240
O        -2.63885879727638    1.22732841309718   -0.60425714246343
C         0.16670372852732   -1.30227115432275   -0.57449588367485
O         0.08379900279971   -2.43801064785574   -0.66666490607071
C         0.63808821714561    0.84704683732313   -2.29058746664499
O         0.81167089550450    0.99471577094830   -3.40768351998063
C        -2.02335726272971   -0.94675240377403    4.44244340580397
N        -1.00129312786141   -0.31970115791403    3.65231510172764
C        -0.92650502938572   -0.27653666714996    2.31632029614444
N         0.12677224844561    0.37956763831494    1.86763811876933
C         0.80363727325983    0.80128395443579    2.99398125420088
C         0.08941374333138    0.36251983313528    4.13147933288795
C         0.51223665355607    0.62953348479292    5.42616097876738
C         1.67851523984325    1.34907029305878    5.56884143299550
C         2.40012164920097    1.78454042716084    4.45527551194463
C         1.98312583612373    1.52231245917137    3.16869051972232
H        -1.57843989619812   -1.67711480199779    5.11933299242595
H        -2.72992324737171   -1.45091684178011    3.78725667820314
H        -2.55469798549610   -0.19904087710310    5.03340692649386
H        -1.66251238816592   -0.74152212153326    1.68433072713183
H        -0.04807342712789    0.28730883451853    6.28112575286657
H         2.04595611159397    1.57986347513905    6.55593735002009
H         3.31236318184887    2.34017262984045    4.60949791758856
H         2.56916338523042    1.86612960981866    2.33278514815639
