62
 energy: -103.652340005216 gnorm: 0.000804590389 xtb: 6.4.1 (afa7bdf)
Re        0.09954341903903    0.79241393745804   -0.49632717116682
C         6.24062555631409    3.39625354038986   -0.78677326966434
O         4.85440358654256    3.20791102838925   -0.55922947160516
C         4.33852589282495    1.97391060970425   -0.70983425863772
C         5.05797763026588    0.82468176165315   -1.03127187584445
C         4.38293467153483   -0.37938318694255   -1.13470651757904
C         3.01430261256493   -0.41994009175952   -0.93328048442022
N         2.31019267664029    0.66712543568417   -0.63530857158724
C         2.94890233218661    1.84347686483887   -0.51797431052100
C         2.09709414001052    2.95674170635658   -0.14757017179049
C         2.29295902785586    4.28274853944092    0.18951084721874
N         1.06442494396333    4.74069131698373    0.49730009664611
C         0.66527284485009    6.06692342782470    0.90905806381730
C         1.48841252863296    6.54884907094623    2.11741450047683
C         2.57751730561564    7.53567726982266    1.70877520962000
C         1.96166947293243    8.79655946649940    1.09343493619059
C         0.71825419929844    8.47043400125204    0.25393556263589
C         0.77411753871572    7.04054232072406   -0.27261847942867
N         0.16624396797869    3.78847629960512    0.36496388959217
N         0.76372622115660    2.71905648617015   -0.01906981631768
H         6.51362274042708    3.13080034418489   -1.81071608569805
H         6.84126365097768    2.81909093528041   -0.07931062716656
H         6.42022583847897    4.45776495084641   -0.63001131814297
H         6.12200078661754    0.86221206726110   -1.19674832300874
H         4.91720469647476   -1.28356363659693   -1.37530708425505
H         2.46753069982165   -1.34799340169488   -1.01611764196395
H         3.18075521494813    4.87387762639618    0.22844625798058
H        -0.38650211314424    5.95983964737473    1.19253827258773
H         0.81989209564239    7.04405390100105    2.82192555936535
H         1.92414340471793    5.68909229043302    2.63215235192074
H         3.25751888296755    7.06747001814170    0.99488852142651
H         3.16850278990063    7.80505880771297    2.58446388103899
H         2.71248093797371    9.28943632645759    0.47518740681651
H         1.68573817335504    9.49309774720144    1.88499581380998
H         0.64083664056813    9.16508724025399   -0.58154089645064
H        -0.18453339632865    8.58309650341059    0.85614450210502
H        -0.04317612769183    6.85710143332462   -0.97134286545382
H         1.71301149712783    6.88282224032351   -0.80660365360805
C        -1.80190266274838    1.20772634677175   -0.32434183371723
O        -2.89670485101712    1.50837942331727   -0.20994189738728
C        -0.24159302719545   -1.10089301673508   -0.82610177275582
O        -0.39146955307868   -2.22212104383518   -0.98803836739285
C         0.05512452766929    1.18352679797987   -2.40838594362192
O         0.06304435587202    1.43071478381405   -3.52159962865353
C        -1.72802466812140   -0.82503467370301    4.54755859219795
N        -0.76609501524035   -0.26622363303913    3.63962596988460
C        -0.86380788893270   -0.18996826138953    2.30607767799714
N         0.17805224211966    0.37960845087584    1.73215854303398
C         1.03740547484067    0.69720419207969    2.76414195542458
C         0.43955300809094    0.29497101271425    3.97978715626367
C         1.05300539641110    0.48288781132888    5.21051952624438
C         2.29279384163471    1.08395047623732    5.20793237906725
C         2.90392305584802    1.47442988033831    4.01444860088924
C         2.29926338484442    1.28794558287014    2.79054680403124
H        -1.29846770463177   -1.67923859726700    5.07392476955453
H        -2.60370527817135   -1.15196800957062    3.99112677622917
H        -2.02942261871465   -0.07602372683408    5.28148083801348
H        -1.71768191272861   -0.56578717488533    1.77061067749224
H         0.58027775933135    0.16869136655598    6.12697059463974
H         2.80704668261088    1.25096269902344    6.14093917027984
H         3.88127280366328    1.93079629725261    4.05413350320865
H         2.80667066588237    1.58414916977110    1.88778213017353
