72
 energy: -123.237235619255 gnorm: 0.000556001332 xtb: 6.4.1 (afa7bdf)
Re        0.71069925606275    1.45444198938671   -0.21367461028904
C         0.72320993812346    5.04072911276944   -2.65569356144327
C         1.92788499178192    5.82992370416168   -2.14828773988828
C         3.14049279772573    4.91452749791715   -1.97147766789054
C         2.27885617850550    6.97369980002858   -3.09827526305804
O         1.66265017125360    6.34508485827140   -0.81194420243135
C         0.64991388840773    7.22394492576418   -0.65569963448427
O        -0.12385639189425    7.57791042408860   -1.50689528896217
N         0.57524370274702    7.66616614816713    0.62923432850133
C        -0.27652642636709    8.79529153573629    0.96287650098131
C         0.67104420312382    9.72208376763315    1.71666161464299
C         1.52210190065947    8.73676591143894    2.52047939951499
C         1.58571987718257    7.46954686760545    1.64156255202478
C         1.27747770794014    6.21462409808712    2.49037261029888
N         1.64157864495465    4.99042926199652    1.83851393663012
C         2.86585370784091    4.43070478186843    1.79031317869797
C         2.68257204643096    3.24945519757736    1.09737718452814
C         3.51478014851826    2.10527331872788    0.78197740544448
C         4.88968715511411    2.06977709489143    0.99855330033633
C         5.58351693717712    0.90533185239800    0.73397371654152
C         4.86895637628766   -0.19209349093934    0.26330386549737
Br        5.73425122361235   -1.83688556130803   -0.09564208505765
C         3.49919604526638   -0.07791510160184    0.05374131327991
N         2.83505227629642    1.04176062073461    0.30200727708169
N         1.36164705897408    3.19645628285759    0.76973372890490
N         0.75952411294695    4.23666014504147    1.21868321350604
H        -0.11497389269056    5.70831186727002   -2.82966854049599
H         0.97846106812058    4.54393655214258   -3.58649844666309
H         0.42395108029118    4.29020992450237   -1.92164818186323
H         2.88432344702794    4.05268370292153   -1.35957137176774
H         3.47284466576189    4.55959437745777   -2.94171485512725
H         3.95519598765319    5.45637592148453   -1.49617807374415
H         3.12260156594744    7.54193830022743   -2.71151139611477
H         2.54383378108088    6.56787618174887   -4.06978606334481
H         1.42942034423348    7.63933642399216   -3.21872940055543
H        -1.10049039157946    8.46329095368395    1.60287351104033
H        -0.68607411599419    9.22093980132684    0.04818768357307
H         1.29059432846811   10.27323180457262    1.00956711710180
H         0.14748617533593   10.43168967406534    2.35127682278958
H         1.02629780397600    8.50900998474762    3.46447620379819
H         2.51412896119273    9.12589400455688    2.73833165164063
H         2.56620101934307    7.34586708846548    1.16741379368461
H         0.20356155101237    6.17481164823406    2.68232452166091
H         1.82467198883740    6.27336641082614    3.43456133884994
H         3.72943036984339    4.87544085476092    2.23652184474541
H         5.39900219199551    2.94532865473473    1.36725582284009
H         6.64861822724538    0.84241924142124    0.88996545953966
H         2.93252074084001   -0.91816125960833   -0.32369199390166
C        -1.07103663560385    2.15259438778265   -0.61736387990050
O        -2.08944854758704    2.61801256232424   -0.82983493337890
C         0.26921464565892   -0.33440066151453   -0.85947913311638
O         0.03797669813659   -1.40847238610904   -1.16949177369147
C         1.36393098146264    1.86969839027616   -2.00788893611191
O         1.78883173233633    1.99673192759626   -3.05851082065303
C        -2.75803059438950   -0.59361487091883    3.68643585309613
N        -1.50955326625686   -0.05993721728658    3.21860104864361
C        -1.22796282424718    0.36647447820967    1.98096573683806
N         0.01124135801946    0.79529042046937    1.83979714585236
C         0.59764666839338    0.63819353434987    3.07890086793783
C        -0.36439532464771    0.09469451018525    3.95978355237415
C        -0.08183751561921   -0.18835181354517    5.28881814563398
C         1.19451856602739    0.08436046954934    5.73047728610356
C         2.15724728771326    0.62097922610805    4.87285308666384
C         1.88109640702994    0.90279845916320    3.55275336935308
H        -2.62947267764361   -1.62994982693695    4.00333486904160
H        -3.49170489380361   -0.55455655465293    2.88438299868338
H        -3.12176509230195   -0.01038850784038    4.53376010128842
H        -1.95572816391535    0.35112551450537    1.18929902661442
H        -0.82828310802591   -0.60697206854171    5.94428447563261
H         1.46044842998644   -0.12223626420201    6.75476954072261
H         3.14738011029199    0.81534711154464    5.25586890344259
H         2.65097733282979    1.30779702304256    2.91678094833839
