52
 energy: -101.114251605760 gnorm: 0.000434349846 xtb: 6.4.1 (afa7bdf)
Re        0.39187276396206    0.65279078586993   -0.35551077304971
F        -0.91232163338949    9.87805228709905    0.20710545870318
C        -0.42758357957942    8.63579377451678    0.17736237793866
C         0.91706459996676    8.43280496144212    0.44755442191881
C         1.42169775337480    7.14750496948583    0.41928532583153
C         0.57679472117864    6.08363076862169    0.11712375988677
N         1.05899591966229    4.76415465320342    0.07390231741488
C         2.33776591301019    4.32296586126911    0.07356588559716
C         2.23482991199372    2.94732330720548   -0.00098645362864
C         3.17074059256540    1.84055465853942   -0.01334801972592
C         4.55247189615576    1.99885162907494    0.05429922829264
C         5.35854082472695    0.87788969496166    0.08811934834209
C         4.74674863459381   -0.37129182463861    0.05932112963335
Br        5.77142539574518   -1.96101876769773    0.13071746503628
C         3.36084287751554   -0.45202403726176   -0.02499630481759
N         2.58833643113691    0.62340185822734   -0.06489025192630
N         0.90428406053391    2.65832916828464   -0.03772305283273
N         0.22116898359902    3.74038589574315    0.00793396283989
C        -0.77363086636390    6.30065143941347   -0.14960473138186
C        -1.28099098759290    7.58319036016564   -0.11883883841579
H         1.54977768048903    9.27465788434173    0.67765056285263
H         2.46440693776509    6.98933605294881    0.64292280271839
H         3.19065847039776    4.96485675293423    0.10209002317097
H         4.98132227290800    2.98748535101930    0.08000433771275
H         6.43220401703000    0.96388497299775    0.13827649438196
H         2.87317242401646   -1.41652577796230   -0.06350744778881
H        -1.40824786586210    5.46024670804591   -0.38055496058074
H        -2.32119936332469    7.77781485032524   -0.32334179572539
C        -1.52245537002350    0.99247143144912   -0.55977812176884
O        -2.62730630371280    1.25360362691369   -0.66171244193692
C         0.17475183499861   -1.27950058074171   -0.54591653060499
O         0.09657170884243   -2.41562523415379   -0.62127861277622
C         0.67135498243598    0.85115522138633   -2.28014138450925
O         0.86344888491997    0.98042009770209   -3.39572894919803
C        -2.03182851515870   -0.97422631197721    4.42501747202167
N        -1.01401377216157   -0.32941965663092    3.64357187490597
C        -0.95621774219420   -0.24122758823398    2.30956964230300
N         0.10252917158859    0.41320044321993    1.86917611567289
C         0.79957865244590    0.78676982630143    3.00041077971824
C         0.09496361143314    0.31653270583462    4.13127046331400
C         0.54177614232234    0.52621260815017    5.42853509755382
C         1.72039495481210    1.22336997107173    5.58050543479734
C         2.42849731749254    1.69654346093782    4.47356531783478
C         1.98800017833368    1.49077664119564    3.18443806879474
H        -1.59614935954378   -1.77854559829346    5.02005691577043
H        -2.78838177116459   -1.38957795965080    3.76292078572950
H        -2.50087391192759   -0.25468316732733    5.09800784138137
H        -1.70876685284237   -0.67064903714362    1.67183169470277
H        -0.00955979213411    0.15750123098760    6.27822811025011
H         2.10749583684446    1.40822041511817    6.56971214367244
H         3.34835760620487    2.23720531994310    4.63536722827829
H         2.56101372198860    1.86757889579429    2.35326478168392
