55
 energy: -97.585288118519 gnorm: 0.000273570619 xtb: 6.4.1 (afa7bdf)
Re        0.33226085465601    0.49121058162947   -0.51908140582297
C         2.20507552940138    9.46629333533910    0.37050878711641
C         1.72743328531275    8.07674345526915    0.69023101208901
O         2.45891153691398    7.11375716154653    0.81221602263136
N         0.38074458424218    7.96834140426545    0.83155131417731
C        -0.26895367939818    6.73910356570245    1.21402972027273
C        -0.68580122994454    5.86986120129370    0.00265226322059
N         0.07848834791527    4.65549448792915   -0.09153189419486
C         1.41734867265486    4.50801263053884   -0.09877102581059
C         1.61135741538550    3.14441449685467   -0.20348825904036
C         2.77197214206314    2.27318767316155   -0.21771560830124
C         4.07651106125661    2.74951567681137   -0.14564910230602
C         5.11623425231235    1.83683797143747   -0.12115069531724
C         4.81392049496458    0.48355844350495   -0.16328607321767
C         3.48781478566885    0.09151173732803   -0.24038939486250
N         2.48014593464651    0.95815462378869   -0.26874798575246
N         0.37539913202278    2.57469886143997   -0.25137191212948
N        -0.52608273077816    3.48431143769513   -0.18168078281205
H         1.75176113286448    9.82026881598690   -0.55290573157767
H         3.28540347184061    9.46088803093607    0.26039313617843
H         1.93223212152121   10.14732102332056    1.17363489084374
H        -0.19235818820630    8.78546369080947    0.69774701530679
H         0.43427576892278    6.17662424468616    1.83668363168457
H        -1.14744249374920    6.98097575383772    1.81266540117556
H        -0.55143319574928    6.44624191778585   -0.91840713256923
H        -1.73044810437985    5.56211522780656    0.07260491082506
H         2.09272734088806    5.33578886943826    0.00328519933345
H         4.25621274485255    3.81195137882489   -0.10713708644602
H         6.13932557398924    2.17388163230217   -0.06847266896051
H         5.59186463362116   -0.26164097130599   -0.14160552052846
H         3.22553608839542   -0.95698580130075   -0.28396562617129
C        -1.61250085512192    0.37936077474382   -0.68022855040257
O        -2.75072310263213    0.37234359693060   -0.75349379459255
C         0.55764750569200   -1.44301460922806   -0.64148098467026
O         0.73336321644784   -2.57186033884285   -0.67667128808445
C         0.53184854789526    0.67739663087764   -2.45270112123684
O         0.67171932613048    0.80459084633899   -3.57725923641184
C        -1.62261484080916   -1.43989024007559    4.36566183258923
N        -0.79775208916170   -0.59671098355351    3.54681335670596
C        -0.71680569024953   -0.59897028524118    2.21017915545301
N         0.13292494959046    0.28911590930590    1.73134303694187
C         0.65891291272185    0.92736285439595    2.83662541597231
C         0.06849954569490    0.37027958226608    3.99331393937118
C         0.38582088979074    0.80076964491849    5.27405109864879
C         1.31683823005134    1.81061518434704    5.38345940606553
C         1.91536332621168    2.36736130207634    4.25118544190793
C         1.60420386012485    1.94145231958819    2.97837847278361
H        -1.00113126221097   -2.05642154506180    5.01742442084714
H        -2.22387043225638   -2.08615253124052    3.72986053596401
H        -2.28351750756614   -0.83101656249906    4.98452260073183
H        -1.29734076272147   -1.26911693782732    1.60090010113010
H        -0.07547456503265    0.36145010161658    6.14372762464619
H         1.59441223910271    2.17733251598646    6.35877774663602
H         2.64548469677078    3.15186993164811    4.37799141769037
H         2.09524257738439    2.38652627987615    2.12960397218465
