58
 energy: -115.895442620671 gnorm: 0.000252831637 xtb: 6.4.1 (afa7bdf)
Re        0.42318995716805    0.99099720302408   -0.13210612136100
F         3.87411272576721   10.27022652563499   -2.15243593736712
C         2.57295242701863   10.01800034491604   -2.37036068557892
F         2.46608967596594    9.60106115179062   -3.63590884357016
F         1.93725805848225   11.19707050748777   -2.29111987785297
C         2.02869329786934    9.02372026432745   -1.37761133472433
C         1.25570390790297    7.95041384233436   -1.79763116106025
C         0.76604003473681    7.05972225368373   -0.86022829132943
C         1.04539107910543    7.23629849659004    0.49021921002053
C         0.52262063476412    6.23559409175939    1.49332623983644
N         1.01718857758141    4.91694887916492    1.18713482206130
C         2.29936268426696    4.50637802343886    1.13064272254527
C         2.22268066914946    3.18152351017735    0.74278619770318
C         3.17466014936285    2.10948967485059    0.52302082986559
C         4.55129826542658    2.26100582618483    0.66520172720544
C         5.37193491718285    1.16444997102059    0.48583184732950
C         4.77904522268586   -0.05478490457836    0.17311854548126
Br        5.82306875656696   -1.61506397315051   -0.06501524349004
C         3.39706929154530   -0.12655349407641    0.03173647845475
N         2.61078233200908    0.92652241176508    0.19854044064922
N         0.89831054528552    2.89838014723757    0.59558612642131
N         0.19827039661575    3.93978903802208    0.86005997496674
C         1.81601606281867    8.31574953597658    0.89990519339687
C         2.30425145384742    9.21534845636847   -0.03035938058645
H         1.03980521862036    7.81460292078854   -2.84562822084314
H         0.15719158452253    6.22707155576743   -1.18125659636786
H         0.82700470516798    6.51164056346824    2.50671385749188
H        -0.56806276823783    6.17335393843978    1.44977230840026
H         3.12557077836644    5.14812789976803    1.35049243537454
H         4.96489356327627    3.22526778269955    0.91291388421314
H         6.44236857807880    1.24619054548485    0.58716583988822
H         2.92447203266792   -1.06465149585370   -0.22591345771630
H         2.02981216908731    8.46425536470267    1.94761592664859
H         2.90070199505693   10.05789498067545    0.28321250098282
C        -1.49462532734614    1.33421057966677   -0.30019581430742
O        -2.60449772782205    1.58475728955318   -0.36393022076750
C         0.23764731925683   -0.86716514519506   -0.70664517156455
O         0.17530868581020   -1.96580665599235   -1.00848982480055
C         0.73070947947840    1.57210584986220   -1.97256571129376
O         0.93694554386037    1.92895153129150   -3.03480441044248
C        -2.07854073794803   -1.54214385059185    4.19270037325278
N        -1.05874201564775   -0.74158849929594    3.57504774515311
C        -0.94611437851935   -0.43901321991647    2.27646948889222
N         0.09696852807883    0.32174663765933    2.00011344049303
C         0.72474208694020    0.53686596681703    3.21052159392516
C        -0.00725996421224   -0.13436166498714    4.21556396941253
C         0.36656518201357   -0.11132004239013    5.55209060542031
C         1.50077558423115    0.60154130204495    5.87386837740579
C         2.23928408640264    1.26588178549554    4.89227234528172
C         1.87150138605955    1.24501322525639    3.56468581102031
H        -1.62828365809465   -2.39485391684399    4.70326100995011
H        -2.76634350846039   -1.90390581320807    3.43158462339591
H        -2.63191674907334   -0.94864652940021    4.92236876820031
H        -1.64722705349708   -0.79243561788902    1.54097613433592
H        -0.20580055776933   -0.63036256723131    6.30361167970246
H         1.82982246313528    0.64735050450942    6.89959239365246
H         3.12550928999475    1.80837562515583    5.18383552211357
H         2.47074406487922    1.76164338452098    2.83347431515803
