56
 energy: -104.772473578773 gnorm: 0.000265284789 xtb: 6.4.1 (afa7bdf)
Re        0.31022601512508    0.72674929630021   -0.32320000620086
C        -3.42865175784307    7.01962540700358   -0.47619076681363
O        -2.48265581565725    8.02074659817280   -0.16568789086300
C        -1.20837778740733    7.67130328148084    0.04568929326525
C        -0.70224871703138    6.37841823526473   -0.00964396996860
C         0.64976068342948    6.14142476094523    0.23376116882500
N         1.09493939609851    4.81037278310741    0.16133268366530
C         2.36118452694514    4.33615699443628    0.12505775023460
C         2.22094564847735    2.96516751906802    0.03281748556714
C         3.12681707186044    1.83174945749395   -0.02493225237404
C         4.51077989441452    1.95592385331902    0.02295481714635
C         5.28497262511697    0.80907950401690   -0.00162133687071
C         4.64769878757826   -0.42094168338533   -0.06614378314968
C         3.26397698159058   -0.45964107599522   -0.11929641409690
N         2.51019533081943    0.63455695122407   -0.10242180534915
N         0.88397897461576    2.71109472504714    0.02310506620589
N         0.22945650187805    3.81011525882757    0.10042520089875
C         1.52332929213345    7.17465405393874    0.53806569450853
C         1.03123602993808    8.46884306864367    0.59144971740029
C        -0.30360787373195    8.70834521799827    0.34938599969997
F        -0.76258710988432    9.96118824427697    0.40590043678713
H        -3.17492748502961    6.50719021628338   -1.40821366246274
H        -4.37434786641019    7.54355757388822   -0.59709557239434
H        -3.51690011589013    6.29058491097494    0.33421926057719
H        -1.33623956459531    5.53905468211434   -0.24160257145839
H         3.22946087157929    4.95747326972840    0.14275268682129
H         4.96069122869063    2.93416450949179    0.07708056478062
H         6.36097186338736    0.87439393075723    0.02993349852569
H         5.21053286511446   -1.33947946750883   -0.08228341045706
H         2.74243351507615   -1.40522334322313   -0.18213294765134
H         2.56529280725666    6.99661412707719    0.74369727600485
H         1.67836858155128    9.29898785641704    0.82297548076523
C        -1.59899329262609    1.12745265036807   -0.43623477945176
O        -2.69729817675275    1.43277459481672   -0.47805214262415
C         0.03441159876901   -1.19163506185169   -0.56051712526280
O        -0.08176535820754   -2.32282434030978   -0.66912953858437
C         0.52740450158276    0.96845676153084   -2.24976864349855
O         0.68137777338705    1.12255044413396   -3.36879053680692
C        -1.94864835290319   -1.04082219845547    4.49049035931741
N        -0.96587608533098   -0.35784229042563    3.69681367164797
C        -0.93312051948727   -0.25967500619320    2.36217796033494
N         0.09419929759025    0.43390201324403    1.90905979765323
C         0.79628728697517    0.82539621640424    3.03091028135291
C         0.12642237391979    0.32598736025212    4.17038683214079
C         0.58411997959050    0.54852669603101    5.46162467893127
C         1.73878773602901    1.28764120208036    5.59839828716640
C         2.41436818107530    1.78679088701711    4.48256501035376
C         1.96317113997046    1.56809117201519    3.19933253731778
H        -1.46651363873317   -1.78912696748520    5.12103867104377
H        -2.66460093672115   -1.53293765794445    3.83610285158760
H        -2.47684195070655   -0.33142721429294    5.12977492299111
H        -1.68128456215304   -0.71086337773379    1.73435035553781
H         0.05814510827748    0.15911281129037    6.31819044776556
H         2.13223532535540    1.48554301643496    6.58261224620542
H         3.31696248460145    2.35898752486338    4.63262500504684
H         2.51208768733973    1.96330104701825    2.36073115830084
