58
 energy: -99.647779225990 gnorm: 0.000727115699 xtb: 6.4.1 (afa7bdf)
Re        0.44066164889380    0.76738896684541   -0.31781629133746
C         0.61681141667980    6.47723672650992    2.28152837211130
C         0.53653987357548    6.16197223379351    0.79082893036572
C         1.29397269603284    7.10316389672320   -0.12474167769592
C         1.06950894482053    6.99255165271286   -1.49410278907542
C         1.74820842824566    7.80263420429004   -2.38509648746079
C         2.65968274519182    8.73488898755789   -1.91664249932862
C         2.88711470871527    8.84970121037326   -0.55687926530264
C         2.21173181940855    8.03519470591886    0.33775310343811
N         1.03342216857773    4.81674588712699    0.56201076174531
C         2.31480297381357    4.40727081076150    0.52851679882344
C         2.23865307442982    3.04952063310236    0.28149490643845
C         3.19476602254332    1.96394098177967    0.15735877915693
C         4.57032852542333    2.14497835669703    0.24924973115995
C         5.39627352749521    1.03787374136302    0.16352787792847
C         4.81713365697379   -0.21104672854792   -0.00485545471822
C         3.43827601905924   -0.30631746616437   -0.09829256967562
N         2.63509421665947    0.74991263634794   -0.02267308732491
N         0.91488696548293    2.74829929303832    0.18727697793751
N         0.21402954657010    3.81045147821601    0.35646860903958
H         0.25260105765896    7.48442106384155    2.46067161911754
H         1.63716735343868    6.39762595253269    2.65005463619159
H        -0.00732566232972    5.78185795018880    2.83912124048567
H        -0.51658506162139    6.13195974857771    0.48817784254936
H         0.35227545704688    6.27116323149716   -1.86087055651820
H         1.56111036702808    7.70982820303727   -3.44360604501538
H         3.18670301554988    9.37217597443133   -2.60935091637624
H         3.59230495103163    9.57721585587987   -0.18525457988434
H         2.40095613265172    8.14612314270857    1.39376937084676
H         3.14052701283764    5.07373502046619    0.65778138143578
H         4.97292208975284    3.13615822927139    0.38350584686686
H         6.46722411061678    1.14774563679173    0.22842179077412
H         5.42143764110779   -1.10064397747972   -0.06988519777359
H         2.96175087388976   -1.26672026240427   -0.24174383336918
C        -1.47844638535014    1.08751860969054   -0.50872906694199
O        -2.58962563938872    1.32749630641834   -0.59652711085917
C         0.25547586232864   -1.14603718514003   -0.65649318548936
O         0.18953703205310   -2.27552658286189   -0.81550913351373
C         0.73021243959455    1.12375424171115   -2.21595241288166
O         0.92662059043465    1.35118378083370   -3.31589579960204
C        -2.07411348329286   -1.11363787722188    4.32497506965658
N        -1.03633558075138   -0.43511825018424    3.60064011702261
C        -0.93056011178997   -0.30747403699411    2.27193135148929
N         0.13417957605096    0.37158789979892    1.89006016623098
C         0.78674515877187    0.71700487520310    3.05594001915869
C         0.04614101491257    0.20881904204290    4.14677911856695
C         0.44150281003014    0.38923477832851    5.46493884003262
C         1.60539489636777    1.09451835180716    5.67942655981215
C         2.35217770613620    1.59857505365089    4.61242526197497
C         1.96382344420954    1.42056291248736    3.30262988186160
H        -1.65786261368900   -1.95531984724718    4.88109484140079
H        -2.82213015795646   -1.48234140916068    3.62665542128143
H        -2.54882596605316   -0.42862927799224    5.02908110610800
H        -1.65410154234311   -0.72703853067676    1.59536656203441
H        -0.13647040512766   -0.00824734994200    6.28344847330167
H         1.95182234767233    1.25901769640311    6.68717971481883
H         3.26210324358392    2.13973712628250    4.82202837718286
H         2.57036744634624    1.81305669498466    2.50362550180099
