60
 energy: -111.359474136024 gnorm: 0.000425941636 xtb: 6.4.1 (afa7bdf)
Re        0.37189814229851    0.76062354519838   -0.36838087930737
C        -3.60887035766092    6.70068927622163   -0.06482237679768
O        -2.72425970109919    7.79795876493895    0.01161098988412
C        -1.39882101129187    7.56533075708060    0.05369389637009
C        -0.56746378624163    8.69004568150819    0.10372116803299
C         0.80081877268245    8.55774765609063    0.14560017457717
C         1.41318323698636    7.30367522421919    0.14135575119521
O         2.76260223009713    7.11859545097464    0.17839350655703
C         3.60418945669575    8.25590169896092    0.18219830271128
C         0.58029501774134    6.17613986680488    0.09432562095912
N         1.07940078121138    4.86264502098980    0.07202488420999
C         2.35175940389387    4.40840491259826    0.09704843124574
C         2.23737121988225    3.03175227788842    0.02115041522369
C         3.16025324288347    1.91569874265042    0.01534934745209
C         4.54198911050050    2.05754852935472    0.12320551035169
C         5.33461248037042    0.92774355391760    0.16331537506223
C         4.71096654857341   -0.31418342480684    0.09547185815931
Br        5.71762691205861   -1.91655930270881    0.17078178711659
C         3.32816810490585   -0.37934687837452   -0.02963699683431
N         2.56787684582418    0.70490941079091   -0.07077136470268
N         0.90766802570576    2.75429421373710   -0.03753571536909
N         0.23304715839258    3.84304493421396   -0.00527379143960
C        -0.80847260841333    6.31097163019706    0.05102934769326
H        -4.60648968060219    7.13320605839888   -0.10349895821476
H        -3.43453775266756    6.10871163618728   -0.96779631372705
H        -3.52575383837067    6.05873132557847    0.81710764627492
H        -1.02355919067878    9.66627681065776    0.10554214094869
H         1.40335829223249    9.44950527830654    0.18041027988355
H         4.62038937873674    7.86517796249293    0.18968298182207
H         3.44579258427932    8.86593560505841    1.07473885054921
H         3.45749614900722    8.86215397182366   -0.71472352223888
H         3.19965694627804    5.05272483835312    0.15655519649164
H         4.97734721345086    3.04219672288387    0.17823758913157
H         6.40718906724492    1.00054036238739    0.24796113825689
H         2.83173720534096   -1.33777686401781   -0.09895926147329
H        -1.39460166959086    5.40874154177702    0.00900272903326
C        -1.53397708154742    1.14119358315569   -0.55982757138250
O        -2.63137932835872    1.44120926057908   -0.64885670121115
C         0.12397383517380   -1.16628159527284   -0.57187719867633
O         0.02231055235118   -2.30032209587793   -0.65801751949451
C         0.65004482007778    0.96839809027807   -2.29133499953829
O         0.84028921516065    1.10672709717522   -3.40642173631088
C        -2.05150638469047   -0.89302068736471    4.40563998473550
N        -1.02321728487923   -0.25835928174715    3.62991236102549
C        -0.98294610703829   -0.12501956502900    2.29848340620362
N         0.09166258878660    0.50535002865820    1.86330636470686
C         0.81945853407576    0.81422650307567    2.99494732753601
C         0.11721555211779    0.32784618574703    4.12053914211566
C         0.59326775516541    0.47192864359134    5.41626409674120
C         1.79857278907114    1.12075780618328    5.57265284174195
C         2.50216415197394    1.61377444118133    4.47163604748964
C         2.03248727335579    1.47342080397411    3.18410888711446
H        -1.64170519536985   -1.74643065211710    4.94833155682543
H        -2.84363156667303   -1.23767111126383    3.74465530996512
H        -2.46766725947171   -0.18692714497519    5.12577264620429
H        -1.76102339262894   -0.50395648838532    1.65947745142756
H         0.04371976455211    0.09036594708479    6.26149488134429
H         2.20935062694404    1.25290603196714    6.56079708409184
H         3.44158708119449    2.11871353996736    4.63625648383562
H         2.60047312998958    1.86900086706310    2.35877211442400
