61
 energy: -109.942071543800 gnorm: 0.000758617978 xtb: 6.4.1 (afa7bdf)
Re        0.45927426155417    0.72228924028136   -0.36297439046286
C        -0.47126590421727   12.36273182604021    0.09010983012567
O         0.01575467318634   11.02540049607282    0.11521898974415
C        -0.91116767314893   10.06681661302876    0.10708484576819
O        -2.09732612480591   10.27098925584441    0.08666641742794
C        -0.31353607646615    8.69825749723204    0.12105892972150
C        -1.17474216186013    7.60731294355649    0.02991399636502
C        -0.67387829996263    6.32260956591282    0.02730820809923
C         0.70209526697457    6.12440764770101    0.12068323812349
N         1.18601635609807    4.80464333346102    0.09709825918916
C         2.46398029561046    4.35934417574740    0.11061988084278
C         2.35917195016616    2.98498727976827    0.03161631135262
C         3.30559748045551    1.88436549111519    0.01745348971770
C         4.67677318436027    2.09224849289069    0.08051042153997
C         5.51127184371636    0.98795928077860    0.10791806542543
C         4.94088818248137   -0.27030771230569    0.08631795733088
C         3.55491740603951   -0.41056104317055    0.01538539204344
C         2.94309204747407   -1.76820882067130   -0.01695839569073
N         2.75220034241028    0.65434401362295   -0.02716195416230
N         1.03217622394278    2.69882713929391   -0.01921069724697
N         0.34831823297080    3.78112655931171    0.02159285048136
C         1.56950602569459    7.20819003510646    0.22054093929336
C         1.05870249349399    8.49196600659935    0.21839666280922
H        -1.08834273616124   12.52305155439950   -0.79575188851665
H         0.40517856936032   13.00455491771186    0.06877481716720
H        -1.07355985733701   12.56229058708937    0.97818135106362
H        -2.23561829255805    7.79025871275784   -0.04315350187144
H        -1.32696132034857    5.46851158845930   -0.05213553714031
H         3.31781538355545    4.99800921336063    0.16399108228401
H         5.06997909922109    3.09505371209764    0.10661539644221
H         6.58187041104524    1.10973407697382    0.15186042496787
H         5.55928020641871   -1.15239649109169    0.11878930359300
H         2.14388505468878   -1.84232733853632    0.71956507222258
H         3.68589095952701   -2.53381304844101    0.18755501451212
H         2.51482840652205   -1.95550578187406   -1.00178875764688
H         2.63568769295324    7.06680738354326    0.29775032652624
H         1.72164826093134    9.33887586631035    0.29063869153299
C        -1.41307389352872    1.20239161961874   -0.62939540230582
O        -2.48874453993821    1.55295501917497   -0.76935257631151
C         0.00683765106471   -1.16321000520748   -0.58603964783392
O        -0.31861595384920   -2.25506526766529   -0.69306643685585
C         0.84345673822247    0.88945780814807   -2.26988867960946
O         1.10842747848915    0.99564684117255   -3.37442472637061
C        -2.15925144568355   -0.70948280610863    4.38246945527032
N        -1.08468973216476   -0.14532594072375    3.61483458297375
C        -1.00480492232744   -0.05728330690715    2.28116335592129
N         0.11045280842923    0.50545933336364    1.85555655674393
C         0.82406298007549    0.81492045712149    2.99588580062046
C         0.07018369445086    0.40168794712180    4.11708314565115
C         0.52024781695531    0.56663084497533    5.41966508883002
C         1.75195979906002    1.16126376755646    5.58631435807414
C         2.50850120041897    1.57790150894673    4.48865697473424
C         2.06569146103280    1.41529059087490    3.19414113080434
H        -1.80822278523729   -1.57980282633265    4.93938910993871
H        -2.96162408425485   -1.01347969463322    3.71433495707985
H        -2.54159038751953    0.02773063067021    5.08940663710908
H        -1.78467318100635   -0.41788832817748    1.63382711556762
H        -0.06861464312704    0.24140239350814    6.26196072828961
H         2.14325769854847    1.30835442991568    6.58032919495338
H         3.46883089858908    2.03885689270493    4.66184564243677
H         2.67648047924523    1.74429282098295    2.37005059126951
