62
 energy: -104.973681476666 gnorm: 0.000324035246 xtb: 6.4.1 (afa7bdf)
Re        0.46738897040533    0.49455475709528   -0.58397288734966
C         4.82582251765764   -0.52889800248191   -0.19122326154462
C         5.44232403464470    0.70330641302381   -0.34973371768571
C         4.64843528604508    1.82711098727702   -0.49877409118298
C         3.26633067627087    1.67708793723401   -0.49093411368617
C         2.34070836249541    2.79223899272441   -0.58110156340300
C         2.44994909802555    4.17022392154746   -0.56928989474211
N         1.17861768045210    4.61340978246648   -0.58285306439181
C         0.71956335215481    5.97449132125314   -0.46704835624745
C        -0.46836462239207    6.20876603040434   -1.41447514097931
C        -1.10422127482840    7.59611105807241   -1.21426625374164
C        -0.44262469321732    8.40078359593703   -0.08680894023548
C        -0.28529277292546    7.54492107936316    1.12909066329631
C        -0.70644391083935    7.92281680519658    2.39364984736467
C        -0.53772903955903    7.06947268421174    3.47099894554172
C         0.04807235020317    5.82950501295944    3.28827258996853
C         0.46936375603675    5.43988896412983    2.02786413163481
C         0.30538870164161    6.29445634559993    0.95105228018596
N         0.33397927288029    3.60452902378792   -0.59663210744710
N         1.00936738266483    2.51402272543428   -0.59769731422831
N         2.66938769376634    0.47532468667732   -0.35203808372032
C         3.44231240973534   -0.59593446117225   -0.20441631963494
H         5.40454715056172   -1.42876754410320   -0.06449135512394
H         6.51741395708619    0.78812325638553   -0.35516867286262
H         5.08110377904379    2.80700859168878   -0.62166658151323
H         3.29596198442608    4.82355334153985   -0.55107026217464
H         1.55716264453095    6.62273856966275   -0.75451094699701
H        -0.12650253314205    6.08968880221020   -2.44386178918442
H        -1.20181764333955    5.42663055721149   -1.21610135750590
H        -1.04516380907803    8.17144024444334   -2.13772060204248
H        -2.15972975613630    7.47334507838111   -0.97209888108187
H         0.54220866624125    8.74769887619403   -0.41460424022589
H        -1.04361202315402    9.28151104354338    0.13688794423115
H        -1.16666911069938    8.88894598922496    2.53470328192097
H        -0.86569907895074    7.37182690359485    4.45342089340078
H         0.18281560947678    5.15845708367393    4.12345418876147
H         0.92506708510795    4.46655466548441    1.90976320980779
H         2.93617451539223   -1.54536501458361   -0.09352677747679
C        -1.44402314971795    0.82966219515166   -0.81868068724077
O        -2.54596362992895    1.09095865700108   -0.95250704645114
C         0.21269726672746   -1.43087578367098   -0.38460053011936
O         0.10794683964973   -2.55743488509419   -0.22636817851395
C         0.71336258718503    0.31145110003024   -2.51259243969477
O         0.88325420361008    0.22245054929548   -3.63643316449472
C        -2.13115058144688    0.27977405076665    4.37228744087483
N        -1.05089465958123    0.63371449902878    3.49491718301444
C        -0.90699976416556    0.28375989337238    2.21064226259653
N         0.19664552924782    0.74831755009443    1.65708066358976
C         0.84044486932840    1.44971969682885    2.65634071817292
C         0.04587092331534    1.39091713366829    3.82328335706766
C         0.41234174185072    2.01555578000646    5.00721732902268
C         1.60557330196362    2.70494127116428    5.00962065619348
C         2.41563424829347    2.75164337421069    3.87302888149911
C         2.05637777324957    2.12990723646479    2.69673039201772
H        -1.76663881389790   -0.35310708112698    5.18369944645016
H        -2.89067254468092   -0.26109363134826    3.81193267859848
H        -2.57494051147686    1.17943625767796    4.80075594102812
H        -1.63146977339021   -0.32211418245274    1.69566134915481
H        -0.20884373120325    1.95921998821236    5.88653674471051
H         1.92992072588562    3.20916274302233    5.90612727063537
H         3.35078701645781    3.28815752781075    3.92020279651640
H         2.71812646406078    2.16394695457849    1.84687353562472
