70
 energy: -122.680845203195 gnorm: 0.000437801137 xtb: 6.4.1 (afa7bdf)
Re        0.43409820480170    0.83219765003990   -0.10247163236627
C        -6.53637675758977    8.73996358806948   -2.53598147111177
O        -5.34876075074980    9.49141001238230   -2.63985208337128
C        -4.23033007017748    9.03895967584196   -2.03061342332022
C        -3.08875001105989    9.83353206219757   -2.17961590668535
C        -1.90086473812440    9.47183860026773   -1.58982739797461
C        -1.80160167208984    8.29690784618549   -0.84053773239517
C        -0.53855721616787    7.91372078791273   -0.20358123243844
C         0.30666270910551    8.87518626815667    0.35570979512201
C         1.49040203633036    8.51161681266714    0.96957187315606
C         1.86975845894010    7.18255437641935    1.04128652750327
C         1.03880730212394    6.22189069666503    0.47654185377564
N         1.38796796666893    4.85912856028921    0.51013024579134
C         2.59680481736729    4.30131812102301    0.74377670847909
C         2.38259156944165    2.94149179742943    0.63167889629776
C         3.19316272171852    1.74823507151691    0.77196489319386
N         2.53424788678743    0.59616350563534    0.56403062049153
C         3.18643175737102   -0.55264658431147    0.70846237279404
C         4.52346296428517   -0.60220417360380    1.06174321773185
C         5.22341643538009    0.57367434778746    1.27142516312059
C         4.55549620830520    1.78808464597559    1.13066666984314
O         5.09257610669210    3.00748172526041    1.31709287868799
C         6.46447576760864    3.10213400234435    1.65857529842462
N         1.06250312900890    2.77845972415943    0.34255785517003
N         0.48569541379947    3.92185725204080    0.27421526427098
C        -0.15402923469692    6.57720113209308   -0.13796143652963
C        -2.93813507470774    7.50462354958165   -0.70631853216959
C        -4.14020973780570    7.86663642209900   -1.28374484404775
H        -7.28424868552065    9.29381028726296   -3.10038851300435
H        -6.86324628525766    8.64915835080959   -1.49544604687000
H        -6.41933213540180    7.74304711436660   -2.97183093926070
H        -3.16798313676127   10.73391530554614   -2.76732903880279
H        -1.02869101250650   10.09135332663349   -1.73450008376590
H         0.01953312407866    9.91449359299273    0.32691968903611
H         2.12440807517318    9.26777247495396    1.40598841830158
H         2.78509674394654    6.90788881620072    1.54075753505965
H         3.48892990932131    4.85328073811130    0.93794506440753
H         2.62429985906239   -1.45848368065426    0.53271117010217
H         5.01564063878860   -1.55468478649150    1.16874341978969
H         6.26635201943215    0.54019075047701    1.54007315493981
H         6.66915694090855    2.61758203272516    2.61660054550502
H         7.09784886204344    2.67090295697095    0.87989441936588
H         6.67089913846159    4.16716641684997    1.74162475894541
H        -0.76433761752972    5.80629178837882   -0.58082796141329
H        -2.89508684625740    6.60207001921975   -0.11436847907192
H        -5.00018075641113    7.23127985439938   -1.14328397772034
C        -1.38138032775279    1.35128662697566   -0.60306742912769
O        -2.42998700478009    1.71578589121427   -0.86730281234427
C         0.07988691963841   -1.06776641484561   -0.37087600014255
O        -0.08966218389912   -2.19229344014964   -0.48772214238591
C         1.04740730493541    1.01972837304374   -1.94700162008716
O         1.43477664732191    1.13970793369862   -3.01276076776866
C        -2.86414228742417   -0.64268215588660    4.18241833673053
N        -1.68890531591209   -0.06181973873725    3.59661743388032
C        -1.39096032716702    0.01558305159442    2.29315261280743
N        -0.23858850238869    0.60915198157941    2.04960787502749
C         0.26649465870125    0.95263081987235    3.28706286074983
C        -0.65095726006960    0.52800105048407    4.27443713417794
C        -0.43090272642718    0.72382471245993    5.63070673906912
C         0.73675287875562    1.36041948119035    5.99065277928338
C         1.65328776064714    1.78784171066703    5.02751002043048
C         1.43874664561833    1.59512341255080    3.68037148941670
H        -2.58543148931128   -1.44647508658717    4.86579962128794
H        -3.49867706695489   -1.04620582888485    3.39627783218596
H        -3.42046747686888    0.11369456794191    4.73882185444579
H        -2.04137304342470   -0.37642748367834    1.53110086736574
H        -1.14325828580477    0.39142460068224    6.36841118601022
H         0.95071129170163    1.53360432207491    7.03328611689702
H         2.55587998037803    2.28356642178413    5.35068439432577
H         2.16749218224500    1.93615535635359    2.96443204064486
