58
 energy: -110.339123821340 gnorm: 0.000551700944 xtb: 6.4.1 (afa7bdf)
Re        0.40135059799002    0.74047880488127   -0.37360947501292
C        -0.40462046611909   12.41264832499417    0.06022057512368
O         0.06925676627897   11.06997863465553    0.07769767455540
C        -0.86708675775934   10.12278535650039    0.12638817757157
O        -2.05051830246466   10.33956646936415    0.16341542607717
C        -0.28586004184837    8.74633454271111    0.12494319043996
C         1.08692498774285    8.52200374368353    0.14006749666445
C         1.57990189446581    7.23108704365859    0.12967819233329
C         0.69307881991981    6.15879770382143    0.10237171630772
N         1.15481258238266    4.83067986248912    0.07383452702865
C         2.42354732920238    4.36118250018377    0.10452531487145
C         2.29336994287893    2.98839884849811    0.02273441057382
C         3.20230661491300    1.85930391399515    0.02045238769718
C         4.58588943968112    1.98182653591221    0.11987004927638
C         5.36298330328097    0.84064633368797    0.15679811494983
C         4.72120895532205   -0.39235517956050    0.09693569726165
Br        5.70428931644100   -2.00829438641749    0.16735389394674
C         3.33590463718103   -0.43738792113896   -0.01723545799503
N         2.59106930760686    0.65738423057872   -0.05817620616309
N         0.95784843407658    2.72855664850711   -0.04719466175185
N         0.29778605722750    3.82417926472243   -0.01429576055065
C        -0.68340104512798    6.37525734249116    0.08927451033316
C        -1.16577392740596    7.66682042501110    0.10186549759372
H        -1.04628957547201   12.57441603965144   -0.80766125467442
H         0.47724260305126   13.04516395249443    0.00884785358709
H        -0.97814117939999   12.62268266874580    0.96469194393920
H         1.76412004442758    9.36050998101718    0.15735537084709
H         2.64693510083782    7.07581131949117    0.13604600129153
H         3.28912996418417    4.98252275842458    0.17495277792418
H         5.03839164080456    2.95907064159290    0.16859093653927
H         6.43706932868138    0.89898326726182    0.23241027325553
H         2.82542452570286   -1.38886682358295   -0.07936046794438
H        -1.35170186098686    5.52974414951985    0.06361567398122
H        -2.22650727025794    7.86433592076772    0.09051905867518
C        -1.50031296486585    1.13559679752954   -0.59917090532019
O        -2.59510341845921    1.43260767334226   -0.70806789770600
C         0.13311796416008   -1.18511947428160   -0.56714601357463
O         0.02115443633422   -2.31838401182072   -0.64370653391587
C         0.70480896603841    0.92802164197110   -2.29576086848970
O         0.90888336012873    1.05018018298677   -3.40986507434146
C        -2.11667865424909   -0.83861798015728    4.37471441956529
N        -1.06990473097739   -0.22290351403323    3.60820784683901
C        -1.00613232587365   -0.10813870342727    2.27647406542238
N         0.08345098356747    0.50395124919917    1.85087343458905
C         0.79585675910808    0.81918104307203    2.99046450437633
C         0.06880878820716    0.35672599967019    4.11032108586069
C         0.52447317675280    0.51374933718782    5.41191423745499
C         1.73428944616728    1.15111913396980    5.57999763817467
C         2.46332289223670    1.61884440999871    4.48446043706515
C         2.01434545351164    1.46484221059531    3.19109828552900
H        -1.72962107028401   -1.70506514201706    4.91385392648968
H        -2.91338406090580   -1.16034080420201    3.70759314874822
H        -2.51956918815244   -0.12734185270742    5.09716941569211
H        -1.77802652984167   -0.48616550783642    1.62949628840268
H        -0.04357824831690    0.15043632160901    6.25288031654306
H         2.12936851467396    1.29323020808896    6.57310228701816
H         3.40646586578700    2.11359845045158    4.65852095610230
H         2.60324781777895    1.83771741219130    2.36948054091646
