56
 energy: -108.342465713115 gnorm: 0.000377272542 xtb: 6.4.1 (afa7bdf)
Re        0.43693804588028    0.69061409375407   -0.38229005886904
C         3.10695822795706    9.54021914550616    0.03372647835222
O         1.70119144704762    9.61854061890559    0.10968803504929
C         0.97468426090126    8.49253563385776    0.12778521673804
C         1.48042318741423    7.19745270823339    0.09364744565164
C         0.60999137911514    6.10859092184953    0.11702499870595
N         1.10645848570978    4.79392036679949    0.07655990676496
C         2.38390719271380    4.35027342561108    0.11582918840567
C         2.28334991655319    2.97467364271605    0.02532951724267
C         3.21455299937226    1.86402344511913    0.02604635241019
C         4.59499312584425    2.01295706515920    0.13344931501065
C         5.39406006763943    0.88714189755255    0.17377251591801
C         4.77691525419951   -0.35806158024090    0.10849433828550
Br        5.79150713990165   -1.95452788978848    0.18090022816881
C         3.39341689152358   -0.42986360378618   -0.01397749842057
N         2.62752248450373    0.65012652597330   -0.05729588843448
N         0.95516915857338    2.68816065323837   -0.05709990557857
N         0.27183821001978    3.77013169656939   -0.02425910555880
C        -0.76621047306188    6.28403572075340    0.16923236097697
C        -1.28066924158908    7.56814790410292    0.20340737349920
C        -0.42447088203106    8.64755467866417    0.18551932439121
F        -0.92489876162270    9.88433951753270    0.22063845056579
H         3.42995776898694    9.04857434911940   -0.88871110772915
H         3.45419763723657   10.57117666478837    0.03124796299401
H         3.52572207865507    9.02096731951801    0.90104320469947
H         2.54524998459313    7.04726251596212    0.03788223165678
H         3.23775967569317    4.98537202209368    0.20264243089163
H         5.02843514659779    2.99855412929676    0.18677143686878
H         6.46629687012913    0.96646070407906    0.25622180474511
H         2.90185160701653   -1.39098135750565   -0.08013390453761
H        -1.41584383038772    5.42535055256645    0.17743574353315
H        -2.34364375676718    7.74091578198812    0.24213199057539
C        -1.46965074686959    1.05272682707111   -0.61890001722226
O        -2.56800192549291    1.33300595613083   -0.73735546026765
C         0.20111541111948   -1.24060732018080   -0.56260825288113
O         0.10730714584312   -2.37617902241775   -0.62885732294707
C         0.74910383662152    0.87483403880970   -2.30313468631275
O         0.96147177443623    0.99574134586956   -3.41583553283030
C        -2.10667902621364   -0.85824478556780    4.36367502891588
N        -1.05475880475432   -0.24917258369781    3.59875475825613
C        -0.98304568804366   -0.14333752587413    2.26665476615515
N         0.10938184434907    0.46521384421803    1.84335757481062
C         0.81602343329227    0.78623615312154    2.98495257628872
C         0.08214515905525    0.33162991040288    4.10357671017364
C         0.53115586222568    0.49454914502920    5.40679256953181
C         1.74126467232538    1.13049177407747    5.57810106989362
C         2.47678055166448    1.59101621040807    4.48390068540085
C         2.03450529100350    1.43085302441858    3.18892174967254
H        -1.73156322636062   -1.73916517787746    4.88752446503302
H        -2.91355097678166   -1.15595400403471    3.69792331399519
H        -2.49127590164897   -0.15035688963285    5.09900730735637
H        -1.75125541060807   -0.52548381089763    1.61774370783273
H        -0.04181874295527    0.13601052279340    6.24644533395409
H         2.13168504409019    1.27668932726339    6.57249383445420
H         3.41998949866031    2.08497607863038    4.66024103693255
H         2.62876362672544    1.79819469191205    2.36879440075531
