55
 energy: -93.197756304055 gnorm: 0.000610350292 xtb: 6.4.1 (afa7bdf)
Re        0.45022182121926    0.82233785197259   -0.11841855539398
C         0.40084001771177    8.40762897940021   -2.62389805829656
C         1.51663314869143    7.97776513364494   -2.06831826775903
C         1.64606132747245    7.17737288820325   -0.80405270557811
C         0.32278341000213    6.89123530616895   -0.10048717387363
C         0.51122859595701    6.14535143448392    1.22478397516126
N         1.01852546652362    4.81722039630297    1.00529486690221
C         2.29954802578614    4.40180141242157    0.99558672531373
C         2.23049386982466    3.06059383183892    0.66631367708071
C         3.18794313442888    1.97937908678277    0.51605440304894
C         4.56089905548953    2.14985840835193    0.65360211769599
C         5.38612445218654    1.04557176649693    0.53093487935195
C         4.80833317680668   -0.19062980384637    0.28360272489693
C         3.43217620258892   -0.27550666065281    0.14955066596344
N         2.63007328244372    0.77873929395609    0.25707432524527
N         0.91034912638844    2.77288832840738    0.50222811503959
N         0.20571905242912    3.82543693751814    0.70594134445232
H        -0.57489663085602    8.22071598341063   -2.21078815212640
H         0.42122003237249    8.97777078998409   -3.53588164494449
H         2.46732036392291    8.19881486463898   -2.53608731954912
H         2.30826013095695    7.72561575821445   -0.12509954889782
H         2.14938347810967    6.23698760823334   -1.05761021499125
H        -0.17860378623306    7.83339951923355    0.12001837973156
H        -0.32530859530929    6.30008404825925   -0.74948534100453
H        -0.45208579019500    6.04376540317803    1.72880356765146
H         1.20911685808724    6.68072708746515    1.87223238030795
H         3.12427279974466    5.04474811479736    1.21777607549500
H         4.96347644472668    3.13049837451495    0.85042574786197
H         6.45532945390483    1.14796200863077    0.62755215775269
H         5.41168275396053   -1.07808032568353    0.18808955068820
H         2.95727504292436   -1.22542896392539   -0.05536589585856
C        -1.45935829084648    1.15916012951972   -0.36980370486853
O        -2.56378932756617    1.40948676580265   -0.50126419565419
C         0.27644638391418   -1.07193076303964   -0.55712660177771
O         0.21780710771113   -2.19245609538200   -0.77120461258361
C         0.81403260232782    1.26595128895945   -1.98529694948884
O         1.05323851102973    1.53826761815420   -3.06639336341470
C        -2.25123257965945   -1.28097340786715    4.31882192963608
N        -1.18327915533344   -0.57155809435332    3.67187146531835
C        -1.03167112116175   -0.36532244335109    2.35773999643389
N         0.05450829412691    0.31877491849960    2.05260635673342
C         0.67249096541257    0.58287819648169    3.25813749495779
C        -0.11048785538857    0.02021789860296    4.29117351473130
C         0.24376238443988    0.11279692391270    5.62992273935158
C         1.40870811041784    0.78670204588783    5.92512161989965
C         2.19624311895042    1.34523034863510    4.91607225852747
C         1.84913174865773    1.25359042437191    3.58588966536954
H        -1.87157047940399   -2.19033540236060    4.78861362171416
H        -3.00681323394012   -1.54826842843010    3.58317290551126
H        -2.70489243336651   -0.65274841034725    5.08650724510327
H        -1.73817149138526   -0.73130589791669    1.63378438814102
H        -0.36535269331607   -0.32637090415585    6.40330454877544
H         1.72379079365345    0.88347076718043    6.95178172515109
H         3.10476885791489    1.86022621012021    5.18830961902748
H         2.48599606074058    1.68686344865410    2.83271353205037
