58
 energy: -101.588006008981 gnorm: 0.000503807518 xtb: 6.4.1 (afa7bdf)
Re        0.49849138837919    0.47807085094096   -0.45299126914117
C         3.15503063825315   -1.82259888012362   -0.07638567695390
C         3.66963252033348   -0.42474382023530   -0.08241869064507
C         5.04275481759362   -0.18556391630284   -0.02894924480501
C         5.52318006049255    1.10995594642732   -0.04133309713578
C         4.61263678029629    2.15173854701065   -0.08650747443709
C         3.25894999486951    1.84636649211728   -0.13004628722826
C         2.23842339278544    2.87886045379786   -0.12640299504356
C         2.24756393255508    4.25944490251161   -0.03568283522804
N         0.94807228224557    4.60785473392223   -0.04812554025529
C         0.36003691270495    5.93371070647826    0.01783813187821
C         1.38978519339791    7.00539510906279   -0.03379830043276
C         1.93351567812367    7.70022349812671   -1.07321905772898
C         2.87150937114996    8.59376996964317   -0.50196663407665
C         2.83838534180454    8.38348631165964    0.84597907973816
C         3.57904097762535    9.02444800188088    1.96062010247920
O         1.94435496765123    7.41297034499354    1.13698588792622
N         0.17961445214375    3.54161906442545   -0.13594342190540
N         0.93560606946188    2.50468951232088   -0.18340772921292
N         2.79308691930405    0.57987610453071   -0.13902341851150
H         2.38449636273608   -1.93931294262888    0.68494001065946
H         2.71265905191232   -2.05688407210748   -1.04518257037837
H         3.95527833118903   -2.52995402470347    0.11932212829284
H         5.72202614902580   -1.02097463765700    0.01752098247888
H         6.58292479958924    1.30735602954390   -0.01024497515926
H         4.93281805665983    3.18055122455924   -0.08866214755757
H         3.04263830103455    4.97058216262192    0.02873958912138
H        -0.33603661234628    6.02746680654964   -0.81975097193878
H        -0.20630574088592    6.00368694277815    0.95239534362575
H         1.69106886116649    7.59701787279244   -2.11095763364587
H         3.48103400145849    9.30063403883768   -1.02465115917041
H         4.31433760144650    9.71565829687135    1.56167918795116
H         4.08182880083037    8.27487048796203    2.56994940817159
H         2.89204947312280    9.57147592387758    2.60516476626442
C        -1.40380197214936    0.80637286033987   -0.73768741143026
O        -2.50418739581384    1.05680171885441   -0.90016076752731
C         0.17228441908042   -1.44209501069760   -0.57061838497602
O        -0.07990361715032   -2.55774759670104   -0.61157705041398
C         0.86497069685876    0.57177148437379   -2.36763488798574
O         1.11804442839871    0.64004041021234   -3.47822432864445
C        -2.09292312640082   -0.71399050288717    4.37377226562788
N        -1.02853949434445   -0.17598335624191    3.57400106318637
C        -0.93115563267486   -0.19980681137176    2.23851304074215
N         0.16652114540279    0.36991674811292    1.77927964011299
C         0.85079340681176    0.80289739995500    2.89739078149327
C         0.09523702004154    0.45980752467077    4.04093967831181
C         0.51660737188578    0.75857313996526    5.32920858009510
C         1.72159991872325    1.41422900059796    5.45849357925565
C         2.48244764155713    1.75674326181196    4.33855878547835
C         2.06843633225137    1.46090203626982    3.05827049499032
H        -1.71302985304522   -1.50352559966770    5.02460903127596
H        -2.86159876892264   -1.12629859830653    3.72376760346949
H        -2.53035282189607    0.07062414074709    4.99306589090338
H        -1.68548334232146   -0.64771972436816    1.61599552170517
H        -0.07311142450898    0.48690504066845    6.18971307152297
H         2.08890813596135    1.66678115075955    6.44039757340244
H         3.42336559347966    2.26541867107572    4.48223705953140
H         2.68441321066156    1.73054456932871    2.21703768187867
