69
 energy: -118.616245269687 gnorm: 0.000363610407 xtb: 6.4.1 (afa7bdf)
Re        0.51826790697015    0.69334054701734   -0.39015692903844
C         5.64059706399007   13.05128780587324    0.74475133230347
O         4.47897115655383   12.96622689823006   -0.04844435389082
C         3.71664944698021   11.85268106778681    0.01902165279760
C         2.57473948439819   11.84415793480064   -0.78918048539688
C         1.72453357946888   10.76416393751921   -0.79065925237945
C         1.98818689614471    9.64450158071364    0.00195118511893
C         1.08041817597525    8.49247037461126   -0.00828064918170
C        -0.30335688363467    8.67100654394824   -0.05104617393401
C        -1.15837320212614    7.58452123795609   -0.06821304922228
C        -0.65734760738740    6.29616913300248   -0.04794805284746
C         0.72125890564144    6.10988075441859   -0.00665524167387
N         1.21438918367623    4.79132877195501   -0.01136717693045
C         2.49460341430108    4.35699471759746    0.00303690528300
C         2.40071428892801    2.97951247297020   -0.04828448752405
C         3.35544352497725    1.88664707453203   -0.04442478690309
C         4.72586444022525    2.10615851231900   -0.00631401535352
C         5.56973193263588    1.00973561529591    0.03506631984763
C         5.00947903564627   -0.25314577217603    0.05880480607564
C         3.62374847003020   -0.40560389431195    0.01748619920433
C         3.02270725720068   -1.76854697376419    0.04463236209755
N         2.81187896171746    0.65111398917229   -0.04687044081969
N         1.07681009803004    2.68241267168482   -0.08545081680547
N         0.38477969274557    3.76204671660517   -0.06166650066771
C         1.58632017099638    7.19502587247898    0.01658959410944
C         3.12953437910809    9.65584566771106    0.79725459025080
C         3.98345745623077   10.74276638121504    0.81705439927395
H         5.40276365002512   12.99241016817170    1.81127234532578
H         6.07392527516372   14.02548922136173    0.52651018994872
H         6.36120214892337   12.26931207414166    0.48583743467886
H         2.38197430715802   12.70641806999692   -1.40691883280173
H         0.85791171919757   10.77128333604854   -1.43420768827523
H        -0.70625926695036    9.67160570082832   -0.05436997126113
H        -2.22552996119027    7.73896118018864   -0.09832145967138
H        -1.30970962482822    5.43880506167411   -0.07017441769603
H         3.34353233445568    5.00338132444071    0.03931153347566
H         5.11066621434222    3.11254445652192   -0.01230063247534
H         6.64001607048037    1.14057587689032    0.05599715754089
H         5.63513257827803   -1.12948584742814    0.10462396124230
H         2.62209956554097   -2.01446567008831   -0.93940729152816
H         3.76592388935046   -2.51442846147626    0.31045995042096
H         2.20515984043185   -1.80881699893891    0.76342438635421
H         2.65578409292041    7.05678920180181    0.02851335129307
H         3.34186567390499    8.81514525968782    1.44263285456912
H         4.84918778423771   10.71720714787979    1.45975020123291
C        -1.35548289573854    1.15277537398919   -0.67868109137849
O        -2.43365944174518    1.49029111927408   -0.83436601755996
C         0.08596899786140   -1.20019190172158   -0.57673736655981
O        -0.22361629141722   -2.29821934846693   -0.67009331850229
C         0.91266046128495    0.82213550370790   -2.29746797144483
O         1.18315940443671    0.90654450621681   -3.40298377632034
C        -2.15020245954018   -0.56445184152373    4.37648167411098
N        -1.06281900451217   -0.03776145460631    3.60047883930476
C        -0.96293832936896   -0.01226021866531    2.26509091249174
N         0.15581955681106    0.53521849297552    1.83033994028666
C         0.85091845298052    0.90146425059055    2.96512562862150
C         0.08105399423677    0.54015874783965    4.09337370936521
C         0.50991313494601    0.77279642661565    5.39274895193632
C         1.73705149643417    1.37985847108589    5.54821543168863
C         2.51079541708989    1.74192375988973    4.44314942392911
C         2.08895512219812    1.51281147830397    3.15176393588150
H        -1.78803292173252   -1.34331626393012    5.04935479454446
H        -2.89866194781398   -0.98777382308667    3.71028617836183
H        -2.60759342674370    0.22791542303779    4.97137711264958
H        -1.73053371170260   -0.40842630314054    1.62382213999608
H        -0.09130518535591    0.48919509685972    6.24141769614926
H         2.11154237347188    1.57907640282839    6.53964902274133
H         3.46775272507463    2.21272775069995    4.60830117975863
H         2.71223395806328    1.79849961030026    2.32086196375044
