72
 energy: -119.669477613009 gnorm: 0.000665505425 xtb: 6.4.1 (afa7bdf)
Re        0.45583956975341    0.71109388845981   -0.56264836095794
C         2.83976579077024   11.75002594155899   -0.17379234114061
C         3.02616531266860   10.23534015548808   -0.10907188281826
C         4.04606064960865    9.86325898619710    0.96520176704853
C         3.43280649320686    9.68471219641363   -1.47468729016385
O         1.70916093307431    9.73876161833515    0.26041362306365
C         1.48029117093538    8.44010953267082    0.41196114947613
O         2.27591084167188    7.52867339824205    0.26789787579886
N         0.18588888034533    8.21617080731664    0.74575378055832
C        -0.79184787846025    9.26618924389243    0.98226335309142
C        -2.07254590456468    8.50081028697922    1.30804128755699
C        -1.54630957524699    7.20769996853922    1.92977232627763
C        -0.31282405913510    6.89968358355972    1.07861108817874
C        -0.65372620835525    6.08847408466509   -0.20335487058423
N         0.11524719975461    4.88161401777054   -0.29617283693038
C         1.45474467725021    4.76765438863472   -0.37147074080754
C         1.67997580476182    3.40554625596868   -0.42150526367520
C         2.86001318299305    2.56255793735510   -0.46720720568988
C         4.15342181256005    3.07317976445121   -0.49005669225413
C         5.21729022317406    2.18884431641119   -0.49097763253952
C         4.95001022027585    0.82779326637373   -0.46291358837580
C         3.63286910072743    0.40028705822245   -0.44749786880110
N         2.60200898661909    1.23969971240172   -0.45034620590342
N         0.45891716178528    2.80426280210317   -0.36979366535786
N        -0.46209235606401    3.69454075472603   -0.29244582526463
H         2.08597590566465   12.00368124226821   -0.91437575043695
H         3.77643546323079   12.22650534909749   -0.44503899742333
H         2.51626756453461   12.12902203880121    0.79187161050179
H         4.16512362305939    8.78430583091195    1.01891440940410
H         3.71904424869970   10.23081793557480    1.93556615200361
H         5.00586734734534   10.31122740861386    0.72606400060062
H         3.56311969005265    8.60695835428018   -1.42694838728755
H         2.67049099227587    9.91722822971346   -2.21533211397197
H         4.37020185581394   10.13720359257196   -1.78373960089523
H        -0.88558198414735    9.90408608004706    0.10175096998156
H        -0.46947001053984    9.88966573478398    1.82220765648511
H        -2.71956268165811    9.05507477393972    1.98262801664699
H        -2.62726947506238    8.28218705809669    0.39557127824395
H        -1.23979479801935    7.38996867387145    2.96009560156560
H        -2.27436180871703    6.40000820614409    1.92228250342302
H         0.45416593164972    6.35257071303571    1.63950527103920
H        -0.44612832201607    6.70630331214028   -1.08133278748458
H        -1.70315563745063    5.78958453662848   -0.21754687041217
H         2.09756931013778    5.62652951026298   -0.35610045192489
H         4.30503057188351    4.14049076439076   -0.50529145385688
H         6.23225947274377    2.55297018701519   -0.51238139485660
H         5.74796956401804    0.10380994004272   -0.45834449545851
H         3.39704570062074   -0.65524896483862   -0.43476173178359
C        -1.49085655542770    0.54378931717407   -0.60600146581333
O        -2.63072873118816    0.50317658654850   -0.61148332542112
C         0.72542319791903   -1.21950690329805   -0.64004404880134
O         0.92741702738321   -2.34452109950641   -0.65418083417303
C         0.54208069838807    0.84183886845453   -2.50894662450621
O         0.61912099404834    0.94010937834195   -3.64239251461350
C        -1.13328571921817   -1.12954556153503    4.48919764500207
N        -0.39171010790002   -0.28466861330106    3.59576542935720
C        -0.39088131008143   -0.32763474922894    2.25716368598355
N         0.39112250454209    0.57713362024837    1.70061443959243
C         0.95462609048037    1.27215346443800    2.75154406014085
C         0.45861384135562    0.73019605025817    3.95871281690795
C         0.83453907886093    1.21465479148313    5.20380254731048
C         1.72702546556617    2.26424976841315    5.22475459653156
C         2.23105549712938    2.80813609006801    4.04130070973443
C         1.86205013203798    2.32846681029751    2.80358625759759
H        -0.45111587895808   -1.68520822542609    5.13494144652203
H        -1.73022814853321   -1.83200270621664    3.91175967309162
H        -1.79460222100739   -0.52664070628110    5.11380315556297
H        -0.97853256049485   -1.03989467315835    1.70513538442208
H         0.44541511712141    0.78619096212563    6.11328948886468
H         2.04750760976124    2.67345065342440    6.16957453459808
H         2.93305551450417    3.62580186724717    4.09923646966695
H         2.27983290958302    2.76566053544524    1.91246005862680
