62
 energy: -106.901860488053 gnorm: 0.000639205912 xtb: 6.4.1 (afa7bdf)
Re       -0.02134677475939    0.86581801298697   -0.49866149871412
C         6.20567340876589    3.22465203269871   -1.01534044107257
O         4.81862014220885    3.09616522144810   -0.75578544439461
C         4.25275132741500    1.87965556319295   -0.85991211371059
C         4.92079225068178    0.69468244555348   -1.16114165344873
C         4.19838345544845   -0.48495035232738   -1.21568084029751
C         2.83381888786817   -0.46648404154844   -0.98577160835397
N         2.17832411394971    0.65501864801896   -0.70553904002545
C         2.86336760867368    1.80901095412245   -0.63550732069325
C         2.06257140598579    2.96399534738105   -0.28111015647964
C         2.30988474276093    4.29792549941000   -0.02258096982814
N         1.10328190033522    4.81596720567110    0.30090923355181
C         0.76697755234174    6.13639519211402    0.65186485946908
C        -0.56441217845405    6.41947581513185    0.93391220815990
C        -0.93842426753101    7.70851878205230    1.28246915639706
C        -2.36192944540287    8.02991334606357    1.60596829646205
C         0.03901678391453    8.69513411697201    1.34302483510701
C         1.37230285598071    8.42312153477049    1.06258043867716
C         2.39343195503677    9.51474867194734    1.11272393630646
C         1.73614281943937    7.12936428986264    0.71381672907348
N         0.17348721472787    3.87613175355784    0.25062494426084
N         0.72844512039419    2.77320977428529   -0.09410414196072
H         6.44871040316994    2.91572316544139   -2.03468757473315
H         6.79867453108657    2.64921819530493   -0.29994741184286
H         6.42719442293323    4.28330510493446   -0.89782684957711
H         5.98189570909229    0.68636409878639   -1.34805954567163
H         4.69251415667683   -1.41548314370350   -1.44116558604044
H         2.25002679748963   -1.37443461236555   -1.03232620165085
H         3.22027165016211    4.85248762912380   -0.05749257838830
H        -1.29484583979275    5.62869839285530    0.87368120224808
H        -3.03000819073892    7.25294080862371    1.24535758874332
H        -2.48613966639141    8.11537630444094    2.68536944318270
H        -2.65099697665971    8.98033360877517    1.16394134182618
H        -0.24509286674319    9.70138831699925    1.61328111645169
H         3.39816415228005    9.11247551424924    1.21193955949702
H         2.19776363241220   10.18646006403247    1.94478314654241
H         2.35080874138634   10.10186989373432    0.19542015369638
H         2.76980397446134    6.91547208939702    0.49258875860695
C        -1.89574861136987    1.36091436865046   -0.26130072712669
O        -2.97080685773406    1.71042851586155   -0.10316532465069
C        -0.44605440946426   -1.01743945911313   -0.78724682174277
O        -0.64302251308146   -2.13416658316078   -0.92998995390016
C        -0.12323523875592    1.23311389647079   -2.41354726532597
O        -0.14886446226210    1.46157553605389   -3.53035325425067
C        -1.66504674456963   -0.74174606446772    4.61406817732696
N        -0.73331188856114   -0.19480443180917    3.66824262519770
C        -0.89999472388860   -0.08101108707642    2.34415537264630
N         0.13003111942172    0.46513932731863    1.72763952553338
C         1.05369659037323    0.72851411414293    2.71856095054878
C         0.50887613597602    0.31442685922256    3.95491455080580
C         1.19506432511603    0.44717823560436    5.15397929866522
C         2.45325157940469    1.00586228209824    5.09768337527656
C         3.00967547143921    1.41258669813279    3.88310333893616
C         2.33235614621133    1.28157546477300    2.69059682406549
H        -1.23564008242574   -1.61784234164961    5.10319996060657
H        -2.57701096487384   -1.03253670492826    4.09719235686736
H        -1.90643594375921    0.00187260937198    5.37527749465127
H        -1.79507247897146   -0.41204882650416    1.84775225330309
H         0.76208426526767    0.12465693901043    6.08706212432536
H         3.02364937319346    1.12893003829953    6.00452202928570
H         4.00108303406650    1.83913108044754    3.88057332049174
H         2.79581836868842    1.59489128922651    1.77029379708376
