63
 energy: -110.961749883425 gnorm: 0.000852671644 xtb: 6.4.1 (afa7bdf)
Re        0.47544003123183    0.71588554747364   -0.38668082873900
C        -3.44295364603385    8.69699523640890    0.14271707505822
O        -2.75218188588245    7.46566170538928    0.17026550380010
C        -1.40339927044260    7.47605478472939    0.15521967829154
C        -0.60121351267209    8.61481208611800    0.15098898329409
C         0.77677127300486    8.50019393147280    0.13573457460857
C         1.41322110000723    7.26469631836751    0.12378674783662
O         2.76760110312038    7.10675385650707    0.10455902808081
C         3.58452204723759    8.25975311020760    0.05893382688107
C         0.60159318650206    6.11503932140804    0.12760482629071
N         1.12913810527492    4.81214630742011    0.09371474594064
C         2.41154166089944    4.38721110255514    0.13262116912760
C         2.33050576193542    3.01068704586312    0.03643665253169
C         3.29540889116596    1.92767500825484    0.03081433787193
C         4.66185288335234    2.16088274344138    0.11781868186506
C         5.51710860297162    1.07349280372889    0.14529197116604
C         4.97216502468869   -0.19579028231114    0.09825996405903
C         3.59092510786557   -0.36191918580796    0.00689325858855
C         3.00588182225024   -1.73115461844752   -0.04917772549816
N         2.76736006370597    0.68733645492112   -0.03309235495754
N         1.01189277947643    2.70354474698641   -0.04679603487401
N         0.30908750732912    3.77486849340245   -0.01123570227933
C        -0.78104291397487    6.23071691644569    0.14403229577369
H        -3.22538031684770    9.29830134891720    1.03017883389199
H        -4.49961285715733    8.43753568003225    0.13410689510411
H        -3.20400143485289    9.26922565263281   -0.75806688797190
H        -1.03412856049523    9.60137194101380    0.15815333189007
H         1.36117599819401    9.40497554258388    0.13136430604963
H         3.45215904771854    8.87725065075061    0.95090327338307
H         3.38751275204524    8.85274889939659   -0.83733077691521
H         4.60798175875015    7.88980084151115    0.02670474184762
H         3.24271551777374    5.05009104211104    0.21678016149105
H         5.03153036063228    3.17188883047795    0.16138610591683
H         6.58450151781863    1.21472499471215    0.20727114374520
H         5.60757411010150   -1.06582747922147    0.12695729804539
H         2.22545511090007   -1.84002616765733    0.70345982883376
H         2.55816652793597   -1.90108423546119   -1.02882122410298
H         3.76819493505013   -2.48607340451988    0.12013220731240
H        -1.38927323347305    5.34179330880121    0.13863649473747
C        -1.40115364560554    1.16452089639488   -0.67448398540984
O        -2.48192955813742    1.49407293724987   -0.82767224499260
C         0.05453547982818   -1.17841274962510   -0.58485206691312
O        -0.25248843386850   -2.27757920793110   -0.67766673194514
C         0.87421068492329    0.86558439480491   -2.29085179455987
O         1.14834941683895    0.95926707712432   -3.39471564302318
C        -2.17793161695278   -0.68519125663297    4.35157543287769
N        -1.09722001812951   -0.12571539832132    3.58930661777802
C        -1.00736160227560   -0.04140572165772    2.25544518680245
N         0.11038267007395    0.51989366953421    1.83668335442854
C         0.81518251664576    0.83407658011106    2.98110403608235
C         0.05373167520460    0.42344097387996    4.09817356547410
C         0.49484587461615    0.59186786288365    5.40331068729779
C         1.72435293293583    1.18910509338204    5.57679646189906
C         2.48726865384671    1.60498754570796    4.48332941742627
C         2.05399868227355    1.43771829899170    3.18624365022847
H        -1.83166088639453   -1.55258270631042    4.91639487818634
H        -2.97499973429077   -0.99283503205052    3.67844266331523
H        -2.56586292991548    0.05655974033405    5.05115536521035
H        -1.78222770097217   -0.40466390559439    1.60363936313137
H        -0.09888036223461    0.26738842913818    6.24256638058565
H         2.10869209806270    1.33903684139676    6.57319279194586
H         3.44505846031581    2.06916597069025    4.66162777399013
H         2.66892638612132    1.76667478585660    2.36555543222332
