61
 energy: -97.612970212087 gnorm: 0.000146846623 xtb: 6.4.1 (afa7bdf)
Ru       -0.97225756489089   -0.27948001789644   -0.11556307152725
C        -0.40797880121644   -2.78059590551321    2.20861348088064
C         0.11552171904253   -1.66490811234683    1.36303197583692
C         0.65315726198323   -1.93237446241338    0.07151767576735
C         1.20292796776013   -0.90472029201346   -0.69418970654351
C         1.35068234792988    0.41636916958676   -0.16918005616837
C         2.17039401826589    1.45968942075597   -0.88996765441908
C         3.65335124851348    1.17321399220039   -0.61720270888208
C         1.89649769693129    1.50443908838110   -2.39380274983371
C         0.84863534947369    0.67124168309248    1.11080731214543
C         0.18355791173135   -0.34117042886885    1.85364076945088
H         0.43520323178708   -3.29990034904452    2.66464335340522
H        -0.95324445374320   -3.50512478357237    1.60775688039055
H        -1.04658651459397   -2.40928893565008    3.00526830919077
H         0.66291944550681   -2.95057260191003   -0.29929665219678
H         1.62779839433787   -1.13530107636617   -1.66373918596309
H         1.93004893334477    2.44109362615338   -0.46632299590189
H         3.93283589219211    0.19677503711079   -1.00616540813552
H         4.26698711921353    1.92492335218292   -1.10580973424293
H         3.86227830148120    1.19466044532271    0.44959215576702
H         2.33290480558698    0.64816215412577   -2.90242854565411
H         0.82646193190719    1.51412577289565   -2.59560841361469
H         2.33431686283566    2.40201578517334   -2.82222855718755
H         1.00897822375553    1.64236911414596    1.56626885512484
H        -0.13272291347554   -0.13054862945861    2.86953271457760
C        -5.67633229701755   -9.77848447057680   -4.55388736696147
O        -5.43965318063975   -8.57930605974774   -3.81803843913723
C        -4.21711556245800   -8.05387354964714   -3.88952516694858
O        -3.32176534473075   -8.55547502803957   -4.54609633329058
C        -4.07208682246379   -6.81370005851334   -3.10115399544612
C        -2.84075226701175   -6.15779062590090   -3.11098220655196
C        -2.67297203564239   -4.98988335941201   -2.39980553121822
C        -3.73399558481200   -4.45528431419270   -1.66629700711803
C        -3.53957896610143   -3.21069371512618   -0.94393720538547
C        -4.43252951521410   -2.44415395463023   -0.20466515668323
N        -3.71565273883037   -1.39275278157113    0.23303309874786
C        -4.07715676725300   -0.33208966752088    1.13541570646733
C        -3.59529691474513    1.01608918808243    0.65565987334043
N        -4.48085650429067    1.98618620912319    0.68370296462796
C        -4.10661647266550    3.20824249129477    0.33981710150342
C        -2.79547412093547    3.47410021166083   -0.03718612364944
C        -1.92608911612994    2.40015650221166   -0.06863657030325
N        -2.31144954422765    1.16468436019769    0.27940908455282
N        -2.47070313466411   -1.51459461965444   -0.21118587701130
N        -2.34361084467964   -2.57651426274091   -0.90565166724918
C        -4.96255786747039   -5.11776602974489   -1.64999330771746
C        -5.13126381426289   -6.28726165898329   -2.36204456830606
H        -5.02410222935497  -10.57464513313119   -4.19212589969399
H        -6.72042380334590  -10.02416415102075   -4.38763085189531
H        -5.47640629115551   -9.61368410429215   -5.61368072572467
H        -2.03522356407961   -6.58484443616387   -3.68880094981147
H        -1.72905780840856   -4.47007849841509   -2.40894787220251
H        -5.46811465567402   -2.57566309631103    0.02355687186452
H        -5.16205602345341   -0.29126706328369    1.24270324925263
H        -3.62625663135084   -0.53346716997936    2.11819375862645
H        -4.87284720827132    3.96786783225508    0.36835808914634
H        -2.46878493959476    4.46141624285816   -0.31299482663707
H        -0.89840932463298    2.51715705219824   -0.39587012373809
H        -5.78786901990316   -4.71938044242600   -1.08351189679079
H        -6.07827487128853   -6.80206991694937   -2.35697624877347
Cl       -1.55828562881264    0.24909203200440   -2.38057392210474
