59
 energy: -91.104126880934 gnorm: 0.000194247684 xtb: 6.4.1 (afa7bdf)
Ru       -1.18911122719424   -0.84016454860768    0.01338132483405
C        -1.29776493200583   -0.31967205576826    3.43088621696351
C        -0.55976293612216   -0.22790179153413    2.13231364194071
C         0.28363141963421   -1.27122812325789    1.69016216084356
C         1.08255305657835   -1.11902285077069    0.52489655507073
C         0.98901605210644    0.03435181058801   -0.25988585486456
C         1.85051122900234    0.23825215507032   -1.48072362170615
C         3.24361179386882    0.69691027565991   -1.03130037108470
C         1.93711424014784   -1.02018007928860   -2.34502886955124
C         0.14293276207428    1.09468863168352    0.19469926324863
C        -0.57955115972342    0.98406981041969    1.37847752105158
H        -1.36898104548839   -1.34858169906416    3.77105730597009
H        -2.29544921370811    0.10497139521286    3.34718573707484
H        -0.75731774697730    0.25034653274751    4.18660814340091
H         0.41558914755269   -2.15254902076495    2.30911084167854
H         1.78298263027095   -1.89983512260301    0.25810363213252
H         1.40028442045722    1.03361917523177   -2.08552539652385
H         3.72403215621892   -0.07403828553317   -0.43393244966730
H         3.86248736168968    0.89498598636060   -1.90203685832026
H         3.18021519878617    1.60728692653334   -0.43948695635866
H         2.53406275732112   -1.79196965850455   -1.86705162400014
H         0.93896379646824   -1.41300050424960   -2.53560424445070
H         2.39929710361392   -0.77849059909225   -3.29869689760708
H         0.14025912451995    2.02873467851205   -0.35728045222521
H        -1.13589668064481    1.83310710604678    1.75978764441283
C        -0.75968063434580   -9.17577726684300   -3.27820408270688
C        -0.25590909345430   -7.76813998730904   -3.18539579147757
C         0.88873919504664   -7.36867165621983   -3.86504750614225
C         1.35653483267347   -6.06875287946360   -3.75912404137206
C         0.69086289971207   -5.15033568495099   -2.97197528689549
C        -0.45809912737180   -5.53390338216496   -2.28120834521717
C        -1.14666084835895   -4.56825085762399   -1.44261123067233
C        -2.31135772270602   -4.69514533013051   -0.69591821077304
N        -2.47154359914242   -3.50526356297709   -0.08563549715994
C        -3.41633834657905   -3.09116167568846    0.92109043664752
C        -4.01659489349333   -1.73982692774652    0.61147217348152
C        -5.39181543933863   -1.55646837907575    0.66580754735585
C        -5.93587438305925   -0.30364149637930    0.44130548626711
C        -5.06059539229500    0.73837776603522    0.16368506228233
Cl       -5.63994357904351    2.33897776695011   -0.13982810239909
C        -3.69685998422857    0.48705414317637    0.11595158147305
N        -3.18248165185559   -0.72319942800478    0.33768552109325
N        -1.46998896104181   -2.71061016660976   -0.44077367237507
N        -0.67850226931303   -3.31375676819377   -1.23970426822115
C        -0.92193920345787   -6.84168675454288   -2.39542627318076
H        -1.84035828899044   -9.19127208982510   -3.39908768617922
H        -0.30462648570105   -9.69738275606676   -4.11583173650447
H        -0.51615692087933   -9.71914933630231   -2.36576849184297
H         1.41724507347546   -8.07982887168292   -4.48308332708303
H         2.24552166464666   -5.77425436352928   -4.29643200053303
H         1.04186229537969   -4.13472338813552   -2.88558711942859
H        -2.99061156730121   -5.50972338547337   -0.56823535557887
H        -2.88719632292205   -3.02758062204145    1.88381436420522
H        -4.20019552115904   -3.84463013633448    0.99591772630216
H        -6.03737182279777   -2.39094886603406    0.88500519280441
H        -6.99945929573698   -0.13866332709166    0.47457001526907
H        -3.00821881137874    1.28425069486007   -0.13504026657989
H        -1.80900824086560   -7.15060335445304   -1.86509299041169
Cl       -1.80627586252934   -0.37852581519072   -2.25124621668792
