58
 energy: -94.352218097051 gnorm: 0.000194498814 xtb: 6.4.1 (afa7bdf)
Ru       -0.95642526490349   -1.20783194737786   -0.25558527547958
C        -0.93556561112928   -0.55411935662230    3.14767939578592
C        -0.25316619452942   -0.50915078751873    1.81640499713097
C         0.58233976739065   -1.56147966268044    1.38177202753654
C         1.33726563514353   -1.44867813104006    0.18378302644421
C         1.20417133609556   -0.32883531518843   -0.64126869185147
C         2.01902461841898   -0.16489730938152   -1.89923850333007
C         3.41532550881651    0.34338621485488   -1.51805441251617
C         2.10678071587025   -1.45995599916545   -2.70773921823115
C         0.36115279974689    0.73898212798353   -0.20007537143990
C        -0.31571207109319    0.66952866763220    1.01436236570714
H        -0.98437635145384   -1.56930005157873    3.53085955482911
H        -1.93910512367942   -0.13909113458169    3.09043682037604
H        -0.36810618998390    0.04827691931163    3.85712084378532
H         0.74465188799793   -2.41734926097903    2.02881497330893
H         2.03614662968835   -2.23274842821829   -0.07608007582124
H         1.53216183888882    0.59243857290106   -2.52413335088741
H         3.92972942607233   -0.38522052267296   -0.89607688843466
H         4.00375185497652    0.50666441244337   -2.41675959635235
H         3.35165669915111    1.28268405490648   -0.97328009423115
H         2.73915944113428   -2.19355669837287   -2.21544539779604
H         1.11233593146581   -1.88177152068067   -2.84763476749198
H         2.53203186755783   -1.25172275953364   -3.68614666652819
H         0.32793860598436    1.65048041562206   -0.78789843750039
H        -0.86566358158016    1.52876555371434    1.38246121602992
O         1.34471224185394   -9.98653993945593   -4.63059433676796
N         1.80457696069476   -8.85473712549795   -4.56128354005839
O         2.83919983546986   -8.52280143039405   -5.12383424595095
C         1.10731608257612   -7.88475212783259   -3.79477348824066
C         1.61669649425098   -6.58943708186338   -3.69596034756659
C         0.93699579813948   -5.65498908374721   -2.94823640673041
C        -0.25120476849702   -5.99949886023681   -2.29492587003754
C        -0.93571149297075   -4.99783489726670   -1.50191423467180
C        -2.09876883587619   -5.08482300736032   -0.74529245865329
N        -2.25170509576154   -3.86791830550895   -0.19616856692160
C        -3.18902065401608   -3.40168073047844    0.79397500549083
C        -3.78232101236137   -2.05980117168572    0.43003478370098
C        -5.15451051715703   -1.86630746867587    0.50166419666446
C        -5.68511721042495   -0.61433851016944    0.23606569084684
C        -4.81350863694515    0.41110297480100   -0.09636229258946
C        -3.45956619314213    0.14049732902810   -0.16126917627048
N        -2.94560269520810   -1.06371743715219    0.10055359142789
N        -1.24832524284949   -3.09092860698761   -0.59604410997736
N        -0.46203693917588   -3.73511827141617   -1.36407697170014
C        -0.75247923736900   -7.30052878502866   -2.40490039043225
C        -0.07796602909069   -8.24113831851992   -3.15132153727378
H         2.53467246546328   -6.34668387820585   -4.20758488195615
H         1.30723663071209   -4.64696246071172   -2.85939833006323
H        -2.77831527965269   -5.89158300475825   -0.57227656832136
H        -2.65459779490513   -3.29911100559723    1.75043287049014
H        -3.97850414302365   -4.14457413471867    0.90712822209118
H        -5.79866534124056   -2.68828460246168    0.76608380266477
H        -6.74802804127493   -0.44485767275367    0.28361378935276
H        -5.17022522220387    1.40373359791915   -0.31298697720074
H        -2.75957843847590    0.91391704354160   -0.45504152263060
H        -1.66713348992143   -7.57756655035350   -1.90890108795074
H        -0.44346777135955   -9.25115030105357   -3.25071365113745
Cl       -1.62226260231205   -0.88836322913641   -2.53229943266228
