72
 energy: -121.568744842734 gnorm: 0.000449081139 xtb: 6.4.1 (afa7bdf)
Ru       -0.72034332895269   -0.53606286064047   -0.53692606060994
C        -1.29954497255279   -1.04491768527594    2.84646648510304
C        -0.39773399544564   -0.56670949809182    1.75176301643654
C         0.49839259033214   -1.45520316930817    1.11314361519362
C         1.42853411001476   -0.97860093158231    0.15646134540178
C         1.43550919583877    0.36922788225693   -0.22662989614402
C         2.43710658257931    0.90660750869629   -1.21953924794441
C         3.76253471020498    1.16493109114797   -0.49171829693760
C         2.63939325449766   -0.03299917132206   -2.40836947319791
C         0.59184985015485    1.27831371130644    0.48469141326520
C        -0.27291580313889    0.82721027043996    1.47409322188597
H        -1.54400861353719   -2.09604325864698    2.71895048847149
H        -2.21935935280047   -0.46763625383749    2.88371846376847
H        -0.79055703888561   -0.92637757430523    3.80327225615742
H         0.53981536888988   -2.49281356362466    1.42847310467034
H         2.14895610674754   -1.66478037908911   -0.26784909893735
H         2.05709883508301    1.86046495848906   -1.60271572479041
H         4.16409229621997    0.23721212286374   -0.09184626521985
H         4.48554766393251    1.58411665834510   -1.18594603245579
H         3.62470584446921    1.86642310610311    0.32766703731691
H         3.17747705738348   -0.93106931488728   -2.12024412048345
H         1.67580423463939   -0.31590100208134   -2.83035888521360
H         3.21411353969454    0.47204383914333   -3.18018750908225
H         0.69031423201983    2.34116989350483    0.29194914140446
H        -0.83000043608915    1.53892278165983    2.06993151422155
C         0.87598561608851  -12.70470316302931   -2.03882658367784
C        -0.01447968240606  -11.64761866582718   -2.60880279300507
O         0.09140859043098  -11.15468735328880   -3.71262186627675
O        -0.96866938489950  -11.29634994619331   -1.74630715400363
C        -1.94069497734290  -10.33010864991657   -2.17816055705212
C        -1.33500637839832   -8.95185773129402   -2.19532965011935
C        -0.98657390285394   -8.34222772711823   -3.34324294282125
C        -1.20599719099192   -8.89445341871809   -4.71591220563840
O        -2.17811899811138   -9.53531619563173   -5.05069536935034
O        -0.21823956346726   -8.57114764366218   -5.52012147930772
N        -0.35569923242682   -7.10287088200761   -3.31626225874629
C        -0.45354517592334   -5.97343468573100   -4.07009430872108
O        -0.92903721024433   -5.73630577639368   -5.14545864789723
C         0.23829703649295   -5.13442110401191   -2.96797233424022
N        -0.52488433469351   -4.05494910989415   -2.44034639165926
C        -1.86412316624508   -3.98346544994810   -2.29217499379818
C        -2.07852161478204   -2.78467730886659   -1.64359182031920
C        -3.18072975944937   -1.98820805107802   -1.15709815641844
C        -4.51737002757635   -2.34185779782281   -1.26000227973120
C        -5.47110180544687   -1.45371979851740   -0.78876714113765
C        -5.04978810038547   -0.23676012861611   -0.28618206857711
C        -3.69014861631286    0.06704890350794   -0.22224130489669
C        -3.24239212730735    1.40837195312401    0.24597120645755
N        -2.77084149749771   -0.82204847971231   -0.60266136974025
N        -0.85000237376185   -2.23139136707448   -1.45015198330693
N         0.06942685473176   -2.98864380664655   -1.92099780826491
C         0.22002926736578   -6.45570643685318   -2.15817286892431
S        -0.94668354784565   -6.57140784492017   -0.76426726899280
C        -1.04244976923234   -8.38864119722300   -0.83762200060740
H         1.88305988387636  -12.58675748703793   -2.42606123324948
H         0.49934912682053  -13.67451871740559   -2.35877634044737
H         0.85796697505818  -12.66413879437315   -0.95497114937843
H        -2.31074909460325  -10.60225793471547   -3.16810154764945
H        -2.74206215449218  -10.40021596771490   -1.44258765370441
H        -0.33314796632727   -8.92498629363456   -6.42330186747443
H         1.23461800212462   -4.76708990271973   -3.21838109262150
H        -2.53799254679866   -4.73218877133991   -2.64943091268118
H        -4.78791087282663   -3.28443398191395   -1.70334830833037
H        -6.51963974948273   -1.69702143791576   -0.83657684868109
H        -5.76336784643437    0.49595493494988    0.05259876841300
H        -2.29305998065316    1.66752210333793   -0.22859730417596
H        -3.13183610973473    1.42160260576348    1.32780006639631
H        -3.98150087747312    2.15740825479932   -0.02239700875343
H         1.18846568291058   -6.85553128419845   -1.85737676019759
H        -1.83811097097421   -8.65462196638923   -0.14281927065146
H        -0.10260875767485   -8.78716084660178   -0.44877220528744
Cl       -1.05766060206757    0.53381218916088   -2.64161742303289
