59
 energy: -87.063103719510 gnorm: 0.000350143597 xtb: 6.4.1 (afa7bdf)
Ru       -0.83827356828607   -1.12139512571995   -0.15421233311613
C        -0.17048678506585   -2.27068479598070    2.98205554660633
C         0.13544138340903   -1.30894115098580    1.87733317485608
C         1.12470722332854   -1.61049419292510    0.90043970605753
C         1.45714015365919   -0.67720825172607   -0.08323213968812
C         0.97578840834132    0.66839468544918   -0.01973450056882
C         1.55701034932687    1.74835927482456   -0.89810361864194
C         2.92080574906633    2.16093774295609   -0.32940934678545
C         1.68867492930305    1.31001796413632   -2.35787894768124
C         0.03287961159154    0.97411744311293    0.95724760254035
C        -0.46838089165345   -0.03062379629225    1.82842066361034
H        -0.04663695185483   -3.29803846902297    2.64962330865893
H        -1.18068816179051   -2.12779239420194    3.35760684070148
H         0.52496170186852   -2.09638497974719    3.80279934354300
H         1.63552603973275   -2.56541561282488    0.93608522212376
H         2.21790204151517   -0.92765000478629   -0.81333663076655
H         0.89172155376304    2.61757430419561   -0.85885949276472
H         3.61072636743721    1.32036535409794   -0.33751940084239
H         3.34376840253063    2.95776968168509   -0.93491917548404
H         2.82031017342779    2.51787834551947    0.69266738949754
H         2.50663012933929    0.60573706847549   -2.48919794997370
H         0.77147871012206    0.83651747398932   -2.70667249426170
H         1.88850245734631    2.17310001412559   -2.98716881902088
H        -0.29981091407776    1.99709971767645    1.07723767286263
H        -1.17618598597138    0.24871382898772    2.60206477115339
C        -2.68173819195110    1.48276619856622   -0.78759171784674
C        -3.50193572014878    0.24466163439235   -0.66935796201603
C        -4.88182077496588    0.28595766284090   -0.85887396114602
C        -5.62880643599918   -0.87677503152192   -0.80241763835349
C        -4.97304083974965   -2.07679746181183   -0.58245236242787
C        -3.59986672925276   -2.05238620529385   -0.38830124380871
C        -2.77336456777381   -3.21819061263420   -0.18524014494603
C        -2.89469627751474   -4.59471551731407   -0.11869582660417
N        -1.64294065123300   -5.03968568372513    0.08339735912195
C        -1.19387731179287   -6.40511110219967    0.13929259028120
C        -1.12842505809972   -6.99902780404105   -1.25093339918197
C        -1.68989294195177   -8.23981518886438   -1.51492028611573
C        -1.61427034214493   -8.78142615633957   -2.78703352914602
C        -0.98785118402264   -8.08157808197819   -3.80430092376781
C        -0.43166924720329   -6.83934559095694   -3.54601595659184
C        -0.49851998994467   -6.30069656042703   -2.27376936677484
N        -0.78563806590045   -4.03731416002784    0.13409105440189
N        -1.45113678862379   -2.95053188521592   -0.02463416560379
N        -2.88051966471852   -0.90396482643160   -0.39331563292859
H        -1.70015162668017    1.23507275008731   -1.20115414120052
H        -3.16936370093958    2.19418609279571   -1.44693687287657
H        -2.56209141336884    1.95040527445301    0.18792064668824
H        -5.35269908405779    1.23412651830406   -1.05861324419481
H        -6.69632227071307   -0.85277266612427   -0.94684288267942
H        -5.49858356859367   -3.01593132562942   -0.56658742056831
H        -3.73989593901733   -5.24404060709894   -0.20084785129577
H        -0.19747938383058   -6.39729587793209    0.58695687738128
H        -1.87376234423720   -6.98321911364843    0.76658095888186
H        -2.18037398398209   -8.79116058614601   -0.72728600334793
H        -2.04829834402777   -9.74936819529262   -2.98604508291042
H        -0.93284727065340   -8.50226873234043   -4.79690305622987
H         0.05643364583641   -6.28995085356653   -4.33677988959549
H        -0.05976337088520   -5.33231982905832   -2.07980899752848
Cl       -0.87446668829158   -1.41613960077705   -2.52098831969646
