72
 energy: -107.019957060079 gnorm: 0.000203020074 xtb: 6.4.1 (afa7bdf)
Ru       -0.61341305239939   -0.91022856244767   -0.66464876050494
C         0.71995570861964   -3.38127084713519    1.50490505819058
C         0.83291531190478   -2.05560294633899    0.83241608866078
C         1.39790980779780   -1.95527286614879   -0.46568006297613
C         1.66555254656038   -0.70039835439614   -1.05329582804402
C         1.30428425242064    0.50032625457819   -0.40962154759890
C         1.69642755298107    1.85561190859248   -0.94573225643550
C         3.13244432692422    2.15941706539018   -0.49968921786144
C         1.56714235451989    1.94282726325729   -2.46708580377437
C         0.63661067324768    0.38739122913131    0.83119346281416
C         0.42254581399156   -0.86207675194193    1.45860038684395
H         0.35741463933972   -4.13744260472725    0.81031407303672
H         0.06576992876150   -3.33689820305707    2.37109074065134
H         1.70979430715087   -3.69236887080255    1.83897126049181
H         1.73965750284291   -2.85643651189242   -0.96307449579572
H         2.19738083521633   -0.66782222832650   -1.99681185818404
H         1.03171512315660    2.60193074588819   -0.49773070908596
H         3.82193761826084    1.42367422511525   -0.90718161243911
H         3.42710267830568    3.14166204030175   -0.85779121771170
H         3.21242373203871    2.14683958145623    0.58446344878839
H         2.37904056827679    1.41727745539783   -2.96360580655089
H         0.62402681197229    1.51077618227538   -2.79967522035694
H         1.60265579973494    2.98170285279644   -2.78218360515003
H         0.39334991525157    1.29229424032853    1.37927205759562
H         0.02546606262970   -0.88313048491441    2.46680516737611
C        -2.30469676153993  -12.38257748873258   -4.07843034632034
O        -1.23076850050674  -11.47214380950924   -4.21300931379327
C        -1.36293283270416  -10.22505453996292   -3.68276793952732
C        -0.24673172619691   -9.37720473799944   -3.88351289941870
C        -0.24936869769178   -8.10180299695495   -3.40895157480274
C        -1.36573050187350   -7.59269989552678   -2.70648693629844
C        -1.40409666891999   -6.27786661227568   -2.21769592215510
C        -2.50866779671008   -5.80146099492889   -1.54456282325152
C        -2.52859750893020   -4.43100915416145   -1.07027906992922
C        -3.54502750218242   -3.70482991465972   -0.45887438191186
N        -3.02722099635059   -2.48298716854863   -0.24210653244345
C        -3.50448632972288   -1.35802989771201    0.54978833459709
C        -4.96915509841651   -1.05853131783191    0.22314293521641
C        -3.33112604447817   -1.72682634165222    2.02523381755479
C        -2.65508642676188   -0.13191732203224    0.18691706321359
C        -2.50033735321250    0.27092095484952   -1.17911220529577
C        -2.09161119595931    1.60195880687235   -1.42483575178260
C        -1.84238976329069    2.44306197086410   -0.36631161918741
C        -2.08239492469011    1.96495462498344    0.93121918992236
N        -2.48461335997565    0.74692732982567    1.19437391125511
N        -1.77607076484391   -2.47691148762833   -0.68075458445222
N        -1.45798679611401   -3.60871418171094   -1.17336453665650
C        -3.61506176339391   -6.65318845290694   -1.33320354789996
C        -3.59827933343954   -7.93582336960280   -1.79865359737459
C        -2.48335313462821   -8.44346015298178   -2.50047373714137
C        -2.46002613446674   -9.76123908871060   -2.99879052556598
H        -3.20733209104669  -12.00029022609956   -4.56231801185987
H        -1.97808203163212  -13.29063649390983   -4.58000638543487
H        -2.50968439918863  -12.59753272374774   -3.02645023951249
H         0.59366893688473   -9.78200011110898   -4.42497088570448
H         0.60346243823601   -7.45994599808416   -3.56891442735445
H        -0.56060376901448   -5.62552469231091   -2.38218306268256
H        -4.54411708196554   -3.97081430028473   -0.19165108947506
H        -5.60635301138774   -1.87017920565716    0.56012092751170
H        -5.10845439884209   -0.91591874678166   -0.84514132423331
H        -5.26816489247975   -0.15092591346172    0.73813278358322
H        -3.96742034766529   -2.56942243752718    2.27774338161119
H        -2.29493457398687   -1.98904201514139    2.22469380159795
H        -3.59923250113365   -0.87462553283670    2.63890025082401
H        -2.99160267179416   -0.27569153711049   -1.98677412883730
H        -2.04436221783290    1.95647503851782   -2.44413755705685
H        -1.54965969505241    3.46778264460588   -0.52358360837733
H        -1.98376707839409    2.61551094945570    1.78922827998779
H        -4.47756828289262   -6.28727375174379   -0.80026968382647
H        -4.44644638591149   -8.58449326220773   -1.63736693953621
H        -3.32375706045683  -10.38475417018173   -2.82994967253094
Cl       -0.69032878675925   -1.19442909028966   -3.03600655141200
