59
 energy: -91.283912568163 gnorm: 0.000426982202 xtb: 6.4.1 (afa7bdf)
Ru       -0.80376901354215    0.07507645114501    0.38736792189810
C         0.26615103086755    0.10715748409533    3.68270967985279
C         0.54365723252837    0.32396111180724    2.22815006597081
C         1.06943959211875   -0.70554956969900    1.41644890602246
C         1.46611095230247   -0.44622176944693    0.07617975478206
C         1.26180544188269    0.80973665777000   -0.50085375711724
C         1.71320043333000    1.12137244532050   -1.90594674564745
C         3.23309607796150    1.32612453352257   -1.90765301257539
C         1.30301950644842    0.03017756533699   -2.89595985906977
C         0.71564286897038    1.84658206769827    0.31843729957140
C         0.40667951414864    1.62503154792895    1.65853981427407
H         0.20535874643812   -0.95093321564924    3.92067878190486
H        -0.65539313579542    0.59946213569907    3.98504127762004
H         1.07894848947154    0.54011936060828    4.26583478251311
H         1.29507978127643   -1.67143950355772    1.85593630730010
H         1.95313518332915   -1.22906377743847   -0.49106584841297
H         1.23556007931953    2.05712473470419   -2.21723853242915
H         3.74237345117361    0.41212774151976   -1.61209508336892
H         3.56508635522083    1.59811881830277   -2.90582765434289
H         3.51782833096518    2.12080720013949   -1.22169731013310
H         1.87368492014292   -0.88167021547069   -2.74177876889000
H         0.24253998355531   -0.19387622064906   -2.78567396970195
H         1.47972016064129    0.37227913739900   -3.91250245694106
H         0.63016164076820    2.84490099493049   -0.09841408313093
H         0.10092156484116    2.45025903422441    2.29215090401923
C        -3.52633073553005   -3.36543471525541    2.25974132593589
C        -2.68235906687672   -2.22493474808153    1.71335113787805
C        -3.31359066081278   -0.84365355298835    1.81680912359576
C        -4.57775126036285   -0.64324661608298    2.34884476203390
C        -5.06855924254366    0.64612210826999    2.48642994090329
C        -4.26691952588830    1.70418613562879    2.09125705643579
C        -3.02450207622728    1.42895802560557    1.55083881566190
N        -2.55310717457053    0.18844557796092    1.41043304333856
N        -2.31392834674380   -2.46408550691057    0.32722990854361
C        -2.59319916233911   -3.47012974780121   -0.52199696655767
C        -1.83285801999416   -3.21023199823058   -1.65535871149054
C        -1.70652740072538   -3.95580038218098   -2.89607788557827
C        -2.43550873857837   -5.12444432628158   -3.11421578658746
C        -2.30136726605332   -5.81988245637973   -4.30106949036546
C        -1.43254524623665   -5.33276103815756   -5.25931929857552
F        -1.29844496323802   -6.01741104743252   -6.43175922543670
C        -0.69516753276511   -4.17808658854547   -5.07356792148257
C        -0.83801119092606   -3.49119663770044   -3.88417928498716
N        -1.14423266094019   -2.06838659291082   -1.42357527662131
N        -1.44466576309849   -1.64694179246112   -0.25768805076417
H        -3.73549888065068   -3.19039461853461    3.30988339024396
H        -4.46234450129640   -3.45936893630944    1.71794085420851
H        -2.97436808230365   -4.29740999017042    2.17955029910144
H        -1.73037240683686   -2.17576013324739    2.27245738659487
H        -5.17645992929322   -1.48203105689669    2.65739582965221
H        -6.05064532570808    0.81685269070228    2.89535340780164
H        -4.59426495959943    2.72560467868833    2.18571067476310
H        -2.38865270083247    2.23188700593823    1.19648243728423
H        -3.26661874225457   -4.26599291486953   -0.29234144407451
H        -3.11194496630543   -5.49665986724124   -2.36333123233662
H        -2.85586309278968   -6.72417425970276   -4.49151631279396
H        -0.03013527270336   -3.83490285833671   -5.84899516602538
H        -0.28186655311306   -2.58496918936077   -3.70901574966339
Cl       -2.09334374026154    0.99324359905830   -1.40878500460141
