66
 energy: -104.936999615413 gnorm: 0.000306175451 xtb: 6.4.1 (afa7bdf)
Ru       -0.75316042719986   -1.75721701128690   -0.56915138337835
C         0.90868516374847   -3.31607804184601    2.04247590693948
C         0.81882015596115   -2.20029461273633    1.05214472874074
C         1.47318470285179   -2.30339128040507   -0.20898221594682
C         1.45172734492662   -1.23648425664421   -1.10828824660047
C         0.87368848570849    0.02160233872326   -0.75609006198906
C         1.06617412771241    1.24753202384793   -1.61672471323382
C         2.44866955780571    1.83685946076872   -1.30507915381547
C         0.92603124044618    0.96210058190520   -3.11249142260181
C         0.24932083886592    0.12750593322262    0.49036878744730
C         0.16967575590781   -0.98576550786732    1.37003826895757
H         0.82533904235086   -4.28308592877407    1.55125796766097
H         0.14587062300478   -3.22805921318619    2.81087245934367
H         1.88428886631204   -3.27629566545029    2.52737094401209
H         2.02167680546260   -3.20631211886859   -0.45069834972765
H         1.97800405946040   -1.32753219459605   -2.05084141898825
H         0.30946608876254    1.98873773281232   -1.33536364323813
H         3.23235705665086    1.12312323985293   -1.54875450452413
H         2.60579477631964    2.73437084014853   -1.89693548368237
H         2.53021013700174    2.09677059411908   -0.25244639706422
H         1.79207100469096    0.42922664324047   -3.49763283714185
H         0.03756063465288    0.36609577129077   -3.31549706492067
H         0.84209779743586    1.89724507079807   -3.65988097338111
H        -0.14141938863328    1.08617217754396    0.81373439454531
H        -0.25711625762872   -0.84927934869951    2.35760046593870
C         2.95015091363717  -12.10472640726938   -4.88207006920642
O         1.72251341192829  -11.93959444481698   -4.19899076065684
C         1.39390581124217  -10.70877384222235   -3.71188378685518
C         2.20381935397612   -9.56225306338146   -3.84373383564537
C         1.79190961727554   -8.36766217744008   -3.32264137399481
C         0.56103131627386   -8.24614501904506   -2.64705972497056
C         0.11814403751431   -7.02619762997280   -2.10832518369500
C        -1.09153297161944   -6.93541193705636   -1.45688867986717
C        -1.52989149887172   -5.66162106739785   -0.91853409452166
C        -2.68934806239489   -5.32834775610828   -0.22838145267311
N        -2.57619974604879   -4.01280166572875    0.03785469830751
C        -3.40152693399194   -3.14306584836558    0.83697341626588
C        -3.69713241011952   -1.84137261124181    0.12853678629440
C        -5.00366028965441   -1.38024968260162    0.03408558629458
C        -5.27092540705328   -0.15894769718969   -0.56179787152805
C        -4.18120741811360    0.54945187619670   -1.03884511678887
F        -4.35059463062779    1.74764656773579   -1.62313979917470
C        -2.89870937294652    0.04325572195766   -0.92843466434905
N        -2.65809911754797   -1.13669371956319   -0.35291323015972
N        -1.42626557507898   -3.57924637768989   -0.45861043775355
N        -0.79182384172076   -4.53011981081987   -1.02588108359262
C        -1.90009911277698   -8.08829908396906   -1.32418848871506
C        -1.49185747837848   -9.28278744559266   -1.83830456613633
C        -0.25567450851596   -9.40198813482835   -2.51386237759164
C         0.18482555232443  -10.61836057371744   -3.05476638466381
H         2.98041565098935  -13.15476361093320   -5.16444458305030
H         3.79939274984279  -11.87719439329836   -4.23255067576680
H         2.99084655229280  -11.48439152785195   -5.78126575479621
H         3.14992828320361   -9.62228401333366   -4.35707943609729
H         2.41562690372411   -7.49289172273881   -3.42947760946200
H         0.73248652803653   -6.14568898608978   -2.21345211168295
H        -3.53056067398308   -5.91228554628122    0.07575676259663
H        -2.86248441101239   -2.91925902936940    1.76984932130499
H        -4.32864244813764   -3.66278302725123    1.07792499080919
H        -5.81285159489055   -1.97411510753452    0.42579489785803
H        -6.27059879722279    0.22969792421778   -0.66021672731384
H        -2.06257329377037    0.59722734591716   -1.33860933688259
H        -2.84778030935840   -8.01962854811289   -0.81548362154068
H        -2.11012711242384  -10.16236370437511   -1.73991923546234
H        -0.42312601340474  -11.50532739479340   -2.96379851639050
Cl       -1.38906784478443   -1.89864605562695   -2.87630292231528
