66
 energy: -97.476747629000 gnorm: 0.000627553846 xtb: 6.4.1 (afa7bdf)
Ru       -0.80904096892421   -1.06826187312781   -0.20281821797824
C        -0.97856197036225   -0.68513412902036    3.23665291075902
C        -0.28343839528573   -0.45304119636815    1.93235325437844
C         0.68621120296099   -1.36413311036912    1.45334816184124
C         1.44373667797489   -1.07557041422853    0.28806832655613
C         1.20100908365695    0.08554316810058   -0.45675932102259
C         2.02876012963575    0.43667485777277   -1.66904169215753
C         3.40286610433031    0.93810979934035   -1.20908337726666
C         2.16410229313334   -0.74825465936031   -2.62592422259806
C         0.21922832360381    1.00511463778243    0.02911169920533
C        -0.47923656208352    0.76064137393421    1.21090162698078
H        -1.02865088919548   -1.74595487155401    3.46839605131651
H        -1.98473866718380   -0.27336567174604    3.22998366199812
H        -0.41840647352335   -0.18913852612467    4.03021244546154
H         0.93244608040600   -2.24018696494448    2.04336561516652
H         2.23522112868947   -1.75264068922325   -0.00593737790123
H         1.52245234923761    1.24758153696550   -2.20464797498483
H         3.93907791038603    0.15430196373633   -0.68044932889311
H         3.99063085132571    1.23765947753552   -2.07217100660380
H         3.29940332567210    1.79584472431919   -0.54829098060772
H         2.77922438252901   -1.53449077534639   -2.19773609637091
H         1.17844792163884   -1.15138390859540   -2.85565308022508
H         2.62577087482681   -0.42138191324370   -3.55360690206641
H         0.08239198860016    1.94656477657325   -0.49386008031246
H        -1.13523043700225    1.52235094807052    1.61680825525701
C        -6.25975385527326   -4.62093228913949   -0.83372705783262
O        -4.89527590674979   -4.21520718800490   -0.82551766536726
C        -4.58781504417082   -3.01130611221452   -0.32489868111016
C        -5.48274291867579   -2.08926951833716    0.21554747928661
C        -4.99411813060776   -0.87951211831721    0.68219418202904
C        -3.64016381195050   -0.60317830453858    0.61380696485998
N        -2.77045073382258   -1.47695815340926    0.11507784920769
C        -3.22538962839758   -2.65504097942988   -0.35420913537009
C        -2.17119804058043   -3.48109259588182   -0.88372866014883
C        -2.00282166669225   -4.71201966341949   -1.48564552150590
N        -0.67721883599225   -4.80379524303716   -1.71428134099810
C         0.00493949272206   -5.88259349041819   -2.32246040322338
C        -0.16739774891135   -7.17815760324671   -1.82519941002712
C        -1.03087026449825   -7.48011764179353   -0.63825873206823
C         0.50381247405676   -8.21237052146445   -2.45951085843398
C         1.32717568327626   -7.98938368725885   -3.55520601973463
C         2.01887348270877   -9.13532101528823   -4.22222332499614
C         1.48355556732749   -6.68976823550601   -4.01629475652007
C         0.83719903634161   -5.62098830689955   -3.41492046523189
C         1.03234015094652   -4.23138435999842   -3.93183051234361
N        -0.04825024601579   -3.72005230089939   -1.28998740887940
N        -0.92906492443919   -2.92937643205101   -0.79487566024702
H        -6.26187664259815   -5.60696371049649   -1.29070649060899
H        -6.86772650988930   -3.93980493457491   -1.43138325997403
H        -6.65348155707967   -4.68589979642957    0.18192939266126
H        -6.53748110555525   -2.29908915621151    0.26635900815392
H        -5.66609324142424   -0.14754797974767    1.09736203751339
H        -3.24828437074772    0.34474204025891    0.95202859174203
H        -2.71024233537648   -5.45867561582285   -1.77216939944317
H        -2.04421763126836   -7.71855359357395   -0.95778124167234
H        -0.64112564778887   -8.34875847659201   -0.11456963934158
H        -1.07514091171734   -6.64652639260045    0.05713615838184
H         0.38420625153767   -9.21867591922526   -2.08733794838135
H         1.29494342311277   -9.73897282745924   -4.76824903291633
H         2.49503416448866   -9.77710764485603   -3.48435843164735
H         2.77079907023205   -8.78439657797008   -4.92324182749109
H         2.12302117667210   -6.50179147444504   -4.86541598361092
H         1.69758878340407   -3.67970149368540   -3.27130545716569
H         1.47466836414836   -4.25578546789455   -4.92315250670790
H         0.09196603864868   -3.68540945183689   -3.98450664023347
Cl       -1.58327471449583   -0.55624532715961   -2.40621054061692
