60
 energy: -93.061202267353 gnorm: 0.000403829903 xtb: 6.4.1 (afa7bdf)
Ru        0.19642060546353   -0.83221030193391   -0.57728212418396
C         0.39716284904279   -2.50701701505751    2.46379572860900
C         0.60807322447048   -1.27773253100025    1.64413220736649
C         1.84958177915807   -1.05282403950020    0.99599293687381
C         2.08292992622237    0.14269368993329    0.29522317969235
C         1.10884096938820    1.17365387700571    0.23865293871813
C         1.42420551829175    2.52586534547755   -0.35731535529876
C         2.36889751853836    3.27961457809800    0.58620874818935
C         2.02711456510910    2.41334966687038   -1.75885279078599
C        -0.12867427900237    0.93566129065363    0.86983456396051
C        -0.38795073025282   -0.27508102731146    1.55497195215653
H         0.79006240208953   -3.38021949969087    1.94877037334591
H        -0.65601730005242   -2.66065660413133    2.68049348167266
H         0.93271859930399   -2.40032456481231    3.40694851870911
H         2.64666160863599   -1.77874815107070    1.10433588895655
H         3.05900825895266    0.31158895202842   -0.14733207237451
H         0.49090429423962    3.09507499863107   -0.42920294464673
H         3.31610966160936    2.75468549445003    0.68271808563365
H         2.56696807967887    4.27252908542851    0.19225491684918
H         1.92651567893769    3.38058451512196    1.57425618441950
H         3.04626617628058    2.03652835632830   -1.72142318404042
H         1.44032310792098    1.73739646699929   -2.38029765594529
H         2.04916223034423    3.39017923828383   -2.23407069698672
H        -0.87051393527388    1.72709050299212    0.90179940504438
H        -1.31391581043228   -0.38918199691198    2.10728834653801
C        -4.54317380228405   -2.62715408504461   -4.70761542614921
O        -3.51574191658439   -2.65882777738524   -3.72256062023812
C        -3.02659371157228   -1.49806213302148   -3.26813428519803
C        -3.43518379898221   -0.22213094208033   -3.65513560533328
C        -2.81445938284389    0.87880714763359   -3.08792631260328
C        -1.81167377724068    0.70576913133309   -2.14977554573334
N        -1.41716739049119   -0.50340082443869   -1.76201241741789
C        -1.99810360195625   -1.58830923276503   -2.31037229181161
C        -1.43661616197407   -2.82191623562674   -1.82095570250949
C        -1.58574033808685   -4.18528751808341   -1.99081620121029
N        -0.66396483527862   -4.73062835938968   -1.17753925905768
C        -0.41891729238335   -6.13890978480987   -0.95366820200913
C        -1.65158783984691   -6.82824000160235   -0.47038550199717
C        -2.03084511796638   -7.27189145176195    0.75964057598040
C        -3.31677123331964   -7.84581122450911    0.59353060900494
C        -3.63772253010928   -7.70717024507324   -0.72440289578999
C        -4.84204768153456   -8.09872524700588   -1.49907173640188
O        -2.62975670824015   -7.08653117925868   -1.37713762196007
N         0.01652980675701   -3.80169612981433   -0.53515107460865
N        -0.43498054365845   -2.65961787409608   -0.91307755698763
H        -4.76710958064541   -3.66926475441129   -4.91972604444612
H        -5.43594494075230   -2.12997317967579   -4.32481240403898
H        -4.19763046477310   -2.13452160779070   -5.61794205244084
H        -4.21182813650550   -0.08442382605927   -4.38803301614231
H        -3.10693094456473    1.87433148893320   -3.37624252039726
H        -1.30638382089176    1.55405366669571   -1.71101217575516
H        -2.24772361467326   -4.75773722193086   -2.60462119092773
H        -0.09068042143197   -6.58835277994148   -1.89539445637267
H         0.37214145884220   -6.21618353334321   -0.20889700614231
H        -1.46830515859708   -7.21195554356735    1.66759394982966
H        -3.91741286096299   -8.30182232514116    1.35269102060937
H        -5.41137220703954   -7.21771029200766   -1.79202442319336
H        -4.54980835550605   -8.62817005780508   -2.40365726134304
H        -5.47359253925164   -8.74062884485618   -0.89390903352929
Cl        1.30721244561435   -1.09680354916560   -2.67899094613953
