63
 energy: -94.294891758195 gnorm: 0.000314556158 xtb: 6.4.1 (afa7bdf)
Ru       -1.02217316074609   -1.37555335111217   -0.07499106212850
C        -1.21123274504989   -0.16357309658767    3.15995329968172
C        -0.43923965110437   -0.35690283169818    1.89233845135768
C         0.38967918817248   -1.48464220429823    1.69878712190706
C         1.23345191927932   -1.58120788073972    0.55919942571822
C         1.19248116945982   -0.61300464944665   -0.44668424202820
C         2.10843473631751   -0.67310798747968   -1.64374443235178
C         3.51936114170849   -0.25271649357880   -1.21499862046985
C         2.11998237441737   -2.06020880617014   -2.28781656983718
C         0.33912523152762    0.51881241271819   -0.25756494320558
C        -0.41791640915111    0.66951141703760    0.90221542039252
H        -1.31668100673439   -1.09772752812748    3.70396973924356
H        -2.19658891361447    0.25160027516532    2.96072889376245
H        -0.67615796941296    0.54156525889842    3.79610713237344
H         0.48372837041102   -2.22205594043914    2.48903669429972
H         1.92672281919195   -2.40910505750943    0.48473969355918
H         1.74322546164972    0.04212171553535   -2.38921905532142
H         3.91584335738807   -0.94405422132394   -0.47548528576374
H         4.18015889347238   -0.25411438649511   -2.07746212342844
H         3.51238322150959    0.74749374824587   -0.78768049042203
H         2.61549393806532   -2.78900614270087   -1.65230703247229
H         1.10004349500692   -2.39388093564708   -2.47485694415371
H         2.64941462456169   -2.02061178587840   -3.23631740894597
H         0.36357441319061    1.31539348816828   -0.99433407250024
H        -0.96700390421527    1.58744010445738    1.08027262372756
C         2.86613250400326   -9.23908656577516   -4.34164790813275
O         1.68085938887943   -9.44863225110247   -3.59762626067435
C         1.09089842992976   -8.38384480628972   -2.99087851736087
C        -0.06606777272857   -8.66775926025573   -2.25925064305899
C        -0.74080162809973   -7.66772879591291   -1.59828706749095
C        -0.27846042715527   -6.35078630678513   -1.64993748500595
C        -0.96104064905772   -5.28106446045791   -0.94827825650929
C        -2.11198299276332   -5.30537420558571   -0.17020551245258
N        -2.27493534916436   -4.03857142230022    0.25892688885739
C        -3.20675303136153   -3.48250900434425    1.20687091281046
C        -3.82786735632805   -2.20069959481785    0.70261978433809
C        -5.20182449401853   -2.01383110362588    0.77516836926005
C        -5.75334077993516   -0.80993557692794    0.37959122300009
C        -4.91533422295407    0.19717930255898   -0.09470099372319
C        -5.44901360384238    1.52325006030350   -0.51372260851002
C        -3.55634992224131   -0.08017088875291   -0.14973150259919
N        -3.01834029214840   -1.23645989195563    0.24244416906932
N        -1.28890051966061   -3.29699805278922   -0.22715857085270
N        -0.50223688672209   -4.00627167025051   -0.94049487746038
C         0.87053534629477   -6.07202894720513   -2.38568751077067
C         1.55310097510768   -7.07168703449583   -3.05034951086941
H         2.69012983795095   -8.56529592121404   -5.18407335290098
H         3.14948260089058  -10.22093627536534   -4.71394574769547
H         3.66416914488161   -8.84324923937783   -3.70839360556450
H        -0.40913653429589   -9.68959374293410   -2.22877390703135
H        -1.62893264309150   -7.91304235195078   -1.03919400907661
H        -2.77933665253733   -6.09762672877864    0.09022792574287
H        -2.66081503453169   -3.26687832563819    2.13743844623443
H        -3.98058448580303   -4.22162312031298    1.41241432464132
H        -5.83021677202476   -2.80712429363808    1.14435574462009
H        -6.81824576891202   -0.65069907080277    0.43074201720700
H        -4.69775053403264    2.09988240967478   -1.04403582145216
H        -5.76769021581852    2.08558199253572    0.36239544929021
H        -6.31650258068001    1.39597235318552   -1.15616638925086
H        -2.87090863593711    0.65673836493150   -0.55323325237203
H         1.22409421620323   -5.05462722246572   -2.43440576826175
H         2.43882576067813   -6.82130350894575   -3.61106462872831
Cl       -1.63665101427721   -1.30053896313856   -2.38779576024081
