63
 energy: -98.373188102673 gnorm: 0.000941429954 xtb: 6.4.1 (afa7bdf)
Ru       -0.40535318643554   -0.89030247778409   -0.01860921424110
C        -0.07202712219775   -1.16600729289421    3.42336947747000
C         0.29556470964045   -0.52858458739332    2.12110328172873
C         1.40470198885214   -1.00153823976515    1.36590966119657
C         1.82730659092934   -0.33921481917426    0.20665844114341
C         1.20382227036326    0.87289216714248   -0.21373323010916
C         1.79024655053412    1.73298525713309   -1.30557403783129
C         2.75534541386335    2.72447671376341   -0.63742676848871
C         2.50790309175671    0.94347919752814   -2.39902309343321
C         0.09944346350701    1.33592775999523    0.51877209725145
C        -0.37133685941918    0.62748020755856    1.65301514594662
H         0.11130090991073   -2.23719105311505    3.39873554540534
H        -1.11404793280499   -0.98336500494765    3.67256911337119
H         0.54635094266551   -0.73680345157727    4.21274042956545
H         1.96095827680940   -1.86044663050994    1.72436875491195
H         2.70853351285701   -0.69225195714017   -0.31395271881556
H         0.97671209153511    2.30086933214394   -1.77110701669663
H         3.56590342871690    2.19212315292157   -0.14592045036450
H         3.18199842865119    3.37935614855423   -1.39139678107890
H         2.24027334615881    3.33454569241945    0.10022748875024
H         3.44303518538874    0.52308527983689   -2.03896666744502
H         1.87687546396425    0.13942572193792   -2.77163199394917
H         2.73895366760074    1.60410823335888   -3.23027047903536
H        -0.34554698321393    2.29022657830385    0.25916545206582
H        -1.17971406133691    1.04800440372532    2.24302431420124
Br       -5.51221922801777    1.68659382774203   -0.96245504424034
C        -4.50520001007226    0.07293105115298   -0.76668421391424
C        -5.10689181442826   -1.16921574349432   -0.94874084190849
C        -4.32376807366239   -2.29670964873372   -0.79526568704005
C        -2.97925563910270   -2.15212728695219   -0.46332424372975
C        -2.03175267149136   -3.21896696820143   -0.27590432124806
C        -1.96331836032098   -4.60192791597971   -0.34804650449733
N        -0.69266062950516   -4.89848956888932   -0.03251744613122
C        -0.05845506507424   -6.17770173397413   -0.14912190723156
C         0.48832804923283   -6.31776031775741   -1.58663252556411
C        -0.59786354656613   -6.12827193094982   -2.59020533407058
C        -0.95209674203520   -4.95758412807824   -3.20511080878338
N        -2.02560078023619   -5.16099931992917   -4.02278673996253
C        -2.39217937502137   -6.47347928130836   -3.95670575830993
C        -3.41481911857931   -7.16124716081988   -4.59926368739485
C        -3.55240044169238   -8.50470909316116   -4.32370520374498
C        -2.69597076507672   -9.15607534730170   -3.43002991928699
C        -1.68083488592651   -8.48217145843103   -2.78985130930978
C        -1.51721536571801   -7.12102002083829   -3.04929288173846
N         0.00809918220428   -3.80535771375605    0.20168295550379
N        -0.77810345712871   -2.80246703314832    0.06105135218100
N        -2.41090827613759   -0.93215023790138   -0.27881197705997
C        -3.16071706817242    0.15325402118483   -0.43781332119135
H        -6.15068472780554   -1.24297623802448   -1.20714332914548
H        -4.73746033657286   -3.28124039736148   -0.93491938678792
H        -2.69936391995532   -5.34214017673792   -0.58027425321078
H        -0.79459796321591   -6.95551065077121    0.05147901313280
H         0.75895771337524   -6.22930921587907    0.56851640448991
H         1.26399546399213   -5.56815702642087   -1.74276078714023
H         0.92736120525959   -7.30853616188549   -1.69092195954931
H        -0.50511962834610   -3.98365241884529   -3.12340367786253
H        -2.44003875097722   -4.46562383321437   -4.61913422737153
H        -4.07430295395316   -6.66327776463886   -5.29414367347923
H        -4.33405496228068   -9.07119461052414   -4.80840501792949
H        -2.83941659282154  -10.21110968404290   -3.24719868192059
H        -1.02267290136978   -8.99935308583645   -2.10823879640942
H        -2.68538120163914    1.11716930358213   -0.31154321913064
Cl       -0.41382254943512   -1.23545736190525   -2.37702379052394
