64
 energy: -96.374597697146 gnorm: 0.000216337100 xtb: 6.4.1 (afa7bdf)
Ru       -0.52604181491066   -0.58364691187502   -0.43383287393754
C         0.02639314831914   -2.81286763590961    2.24166507263459
C         0.44796859852895   -1.63551999346074    1.43133714385400
C         1.26237727835381   -1.80536226255451    0.28432827778836
C         1.77283637214879   -0.69127914267238   -0.41824591672994
C         1.46112809151687    0.62725654562601   -0.02714135137340
C         2.11006008924159    1.82353874156007   -0.68133583673246
C         3.56786675026309    1.91671461974432   -0.21528726051866
C         2.02841199456568    1.75491432567062   -2.20838726829067
C         0.58075492764927    0.79126947965907    1.07065237040324
C         0.08102748456121   -0.31499558780364    1.79401288125802
H         0.86825968855987   -3.13832077540860    2.85313585377347
H        -0.25283052605351   -3.64412923940296    1.59737099236620
H        -0.80043009931092   -2.56931948027171    2.90257528212004
H         1.57699300379354   -2.80345794370119    0.00100014813264
H         2.46091854198099   -0.85963857130574   -1.23830150669911
H         1.58756249530142    2.72528661256603   -0.34494017482710
H         4.12799592391608    1.03709821194828   -0.52311156375308
H         4.03780864349873    2.79229046300317   -0.65406031398626
H         3.62154705402848    2.00082615959825    0.86720131096629
H         2.71609793970412    1.01345051452513   -2.60737244576943
H         1.02188560783407    1.49073365490019   -2.53488354088260
H         2.29070829729678    2.71716280986538   -2.63924810448849
H         0.35980235297054    1.79365618467926    1.42420587142809
H        -0.49006717819505   -0.14374439204532    2.69954442966646
C        -3.79668469536156   -9.94505711101054   -3.21443273134679
C        -2.53243309275672   -9.19378094945826   -2.91210063721213
O        -1.43369989751391   -9.70739063159420   -3.06569685048154
C        -2.65869102503857   -7.80021253657024   -2.42489072315602
C        -3.88852962228945   -7.18024181706753   -2.19606731453517
C        -3.94101380016767   -5.87486795454748   -1.75160678541704
C        -2.76589222883710   -5.15679475214764   -1.52782030931307
C        -2.79648336324498   -3.77666532939297   -1.08004883562741
C        -3.86582474713765   -2.91358656490423   -0.86834069936779
N        -3.31920526500670   -1.74696079623085   -0.47719320044315
C        -4.01539399425633   -0.66218912459007    0.18526976835291
C        -4.01089509790643   -0.96258793054728    1.69326848120797
C        -3.44565273081528    0.72574661292156   -0.02187231364915
C        -2.20496879680411    1.03259177243341   -0.58837667964573
C        -1.81956599739351    2.37496144811253   -0.64178113410327
C        -2.64921250007954    3.34559430001545   -0.10890838354629
C        -3.86247398764911    2.93459948690863    0.42946582766211
N        -4.23993579868213    1.67210159964940    0.46453165660105
N        -1.99551632425838   -1.90435063001846   -0.43482300303932
N        -1.67215892591395   -3.08617763593420   -0.79146213002553
C        -1.53406018827447   -5.77451048570179   -1.74979908618301
C        -1.48515071152252   -7.07763910099161   -2.19130835043472
H        -4.36981811827810   -9.41800195194202   -3.97304511342583
H        -3.54479951382568  -10.93858066473789   -3.57613624500852
H        -4.40161174723910  -10.03153679977385   -2.31539994859655
H        -4.80914323047201   -7.71392436134670   -2.36330189505216
H        -4.89944120630102   -5.41298364745967   -1.57954029279158
H        -4.92095431908468   -3.05127929091144   -0.96859864034195
H        -5.04711740734691   -0.65711461028295   -0.17809509168419
H        -2.98517426499710   -0.99498237286360    2.05557533758055
H        -4.54853684994509   -0.17580731606111    2.21096062718383
H        -4.49353552093448   -1.91481632181317    1.89136942247223
H        -1.65761302043085    0.33103205645407   -1.32146829269078
H        -0.89014573236115    2.65065851446168   -1.12002082318484
H        -2.37468903735406    4.38657434512076   -0.12682955220213
H        -4.56446173219921    3.64153004235797    0.84667348188820
H        -0.62897215778600   -5.21390247177403   -1.58145138577976
H        -0.54087832743449   -7.56961837706232   -2.37216846338300
Cl       -0.45703268871578   -1.11645302864965   -2.79463316769191
