60
 energy: -91.134685812514 gnorm: 0.000293233588 xtb: 6.4.1 (afa7bdf)
Ru       -0.05333012632506   -0.37843426014480   -0.87194079433751
C        -0.46109137489190   -2.34195223393955    1.98926585630605
C         0.41067058684377   -1.49534433534923    1.11954120728302
C         1.17483247050137   -2.08316524404783    0.07330408424113
C         2.06587327243745   -1.32546995758874   -0.68772953251577
C         2.32169135829139    0.04326022873151   -0.37543769238433
C         3.48621287522535    0.80250132308125   -0.96683778770240
C         4.69380260242657    0.58681869913275   -0.04079877675759
C         3.83529057814230    0.39690544916703   -2.39796650696716
C         1.56366585048667    0.62410070178210    0.64575631472990
C         0.58278625160862   -0.11902260404300    1.35341938663167
H        -1.07157084031784   -3.00485941095033    1.37801128348821
H        -1.10657307238546   -1.73160525925156    2.61539868909046
H         0.16395000215651   -2.96121847894643    2.63246280798009
H         2.66341500059592   -1.81689133328592   -1.44640258950007
H         3.23516010038507    1.86954414340595   -0.96426379670164
H         4.96729716091625   -0.46567458080374   -0.01264833055600
H         5.54295441315741    1.15298742467169   -0.41317541234106
H         4.47570045114123    0.91580590447748    0.97251396812780
H         4.27910613595202   -0.59555485624736   -2.43386914669752
H         2.95185579377017    0.41248845833636   -3.03192997264550
H         4.55730830075018    1.09842472979752   -2.80810329984424
H         1.79118209656610    1.63935147790900    0.95507710639339
H         0.06977031372998    0.34395086785515    2.19097162402710
C        -4.32348538846659   -9.69787090569887   -1.20821016480527
O        -3.23346195202451   -8.97547944374406   -0.67203939885979
C        -3.13995416782975   -7.64649509075681   -0.91869658855356
C        -4.05341342566018   -6.90215685986087   -1.66290679935113
C        -3.85385118363813   -5.54838435535636   -1.85570878249615
C        -2.74350158828392   -4.90381406884385   -1.31624084384411
C        -2.50832101873114   -3.48960289531365   -1.53177343355736
C        -3.23584943608884   -2.54866499352284   -2.24910063245551
N        -2.54622572379755   -1.39658430283594   -2.12862861820066
C        -2.81431928087885   -0.11211114642101   -2.71508824564766
C        -2.61725632866676    1.03161180070743   -1.74799154824760
C        -3.55608529640433    2.05681870395015   -1.74790252601856
C        -3.37247128154304    3.17185679995002   -0.94919940378048
C        -2.23096387532491    3.22346410797905   -0.16411417251905
C        -1.34769668122031    2.16314166499410   -0.20443661905424
N        -1.52135413990767    1.07459596070530   -0.96653897772035
N        -1.47163241306647   -1.61877255292988   -1.38719542757434
N        -1.43247216773318   -2.84609154507497   -1.02027463824183
C        -1.83325030892193   -5.65488285394669   -0.56682186185418
C        -2.02635252166025   -7.00075724667841   -0.36922749765440
H        -5.27602717166141   -9.32917905748914   -0.81703697594546
H        -4.17536505750094  -10.72759721722419   -0.88879788789593
H        -4.33060187155089   -9.65415042031822   -2.30102708141566
H        -4.92219782559633   -7.36975650298844   -2.09733452122189
H        -4.57422925129293   -4.99490072096838   -2.43690253085270
H        -4.14334415920224   -2.62090843677793   -2.80808470073408
H        -4.42259863123598    1.98079615790608   -2.38484980897231
H        -4.09264157629288    3.97383259253413   -0.94415524051060
H        -2.02121864826024    4.06847226656544    0.47058279922415
H        -0.45241842470033    2.19653741544675    0.39975366107070
H        -0.96939290049111   -5.16427111051756   -0.14899132103103
H        -1.32782893615129   -7.58808075362450    0.20509466364466
Cl        0.30813858027616    0.03967525473923   -3.16393271307495
H        -2.11424335696828    0.03867130379657   -3.55333682671773
H        -3.83696653010416   -0.11350632011336   -3.09375044826726
H         1.09538373937880   -3.15026208200289   -0.10088357618609
