65
 energy: -105.975427790693 gnorm: 0.000503353009 xtb: 6.4.1 (afa7bdf)
Ru       -0.42624280077938   -0.02221557629500   -0.15013107022637
C         1.19727229200948   -1.10166869495965    4.13451024198086
C         1.17953439128072   -0.29452662927466    2.87920285669073
C         1.79857399566669   -0.75231956813017    1.72355756066682
C         1.80677804211811    0.01970045379351    0.54411255882891
C         1.26397381525245    1.33232534337895    0.55437834959043
C         1.42100158643397    2.24473559598026   -0.64663576195154
C         2.88246403173081    2.62885223610607   -0.88278003215531
C         0.83236703241531    1.51687743849510   -1.86410632932914
C         0.58898638218715    1.76030627783869    1.71082206905606
C         0.55938225996703    0.96232699757754    2.84930716632246
H         1.19051124233790   -2.16508314421769    3.91378601471136
H         0.35144717519847   -0.85732752793814    4.76988455606693
H         2.10730260408504   -0.88499924493400    4.69251620335053
H         2.30773120756000   -1.70485009532964    1.72864810228243
H         2.45022697924796   -0.29753571344715   -0.27197847436211
H         0.84912898977392    3.16068046314942   -0.46198397415852
H         3.49376391653580    1.74901224168316   -1.06343416656959
H         2.95946744889041    3.28468716432058   -1.74508770987864
H         3.27808847686660    3.15047260844116   -0.01575107012514
H         1.55141288792532    0.82190857215471   -2.30113984567635
H        -0.10269562354047    0.91950746886552   -1.59528759408401
H         0.51420590751533    2.22090296398788   -2.63074906003112
H         0.17738678077024    2.76020341993817    1.74786924583516
H         0.07847831613738    1.33246223606453    3.74237754355670
C        -4.26317435926740   -1.45261661348624    0.95222411750764
C        -2.80465513831278   -1.49508636736137    0.49134578732038
C        -1.84023359020091   -1.08868288253269    1.61467154036768
C        -2.59275562372091   -0.49909879048912   -0.66331250187745
C        -2.85833142141323   -0.82209733932143   -2.01023874678926
C        -2.99048303177475    0.19074299873738   -2.93484385669820
C        -2.90850721158414    1.51864560060577   -2.50639012876165
C        -2.63869767512228    1.77133071718499   -1.17746157917790
N        -2.46843609387160    0.79776695701876   -0.27092295349242
N        -2.43760189251827   -2.83862181972677    0.08099334279459
C        -3.12329597506964   -3.73543525210657   -0.65559514709568
C        -2.26866339171100   -4.82279331624951   -0.76717100270620
C        -2.44335134689421   -6.08621087629459   -1.45935286652835
C        -1.40241168364940   -7.01497630617986   -1.46139816383984
C        -1.53650587476084   -8.21647718428142   -2.12623210570126
C        -2.72333613585647   -8.49929672652086   -2.79329319974927
C        -2.86903886390997   -9.77953029827598   -3.55106804872687
F        -2.08018384551141  -10.76990367044629   -3.09732700856655
F        -4.12514754664804  -10.26834625658855   -3.53724041009532
F        -2.55579067537656   -9.64289994372545   -4.86530290335037
C        -3.76998358618260   -7.58389477291951   -2.79831059604926
C        -3.62896448936588   -6.38360632859301   -2.13162239659567
N        -1.13459126004595   -4.50956427780156   -0.08804815958415
N        -1.24474576482757   -3.34026634735220    0.40267024326094
H        -4.42563569797831   -2.18083366835274    1.74204620898143
H        -4.49177908305284   -0.46104038965051    1.33061111983820
H        -4.93867022786253   -1.66592704121516    0.12880693451406
H        -1.83648853701810   -1.84255845431867    2.40073938581257
H        -2.13269821378343   -0.12523321086740    2.04359735058815
H        -0.77536617733048   -1.10958045498593    1.20709184651246
H        -2.96695309681197   -1.85308415445398   -2.30852732892140
H        -3.18950844210510   -0.04076692977239   -3.96850912434352
H        -3.06083572607672    2.33013702365759   -3.19782138323936
H        -2.57171980762872    2.78016255156816   -0.79221214816711
H        -4.11493233415937   -3.57081779345274   -1.01501514761630
H        -0.49151046392842   -6.77654353126788   -0.93750278510461
H        -0.73284901797587   -8.93587247014595   -2.12951119456472
H        -4.68496250707951   -7.81942638229760   -3.31908447818802
H        -4.44600827495853   -5.68130224647734   -2.13725281485305
Cl        0.16753874781141   -1.73568603861170   -1.67654807757387
