69
 energy: -103.835836734928 gnorm: 0.000380410038 xtb: 6.4.1 (afa7bdf)
Ru        0.59609484750613   -1.66366902750917   -1.03119214785467
C         0.43298287001569   -4.38247649455490    1.13461213825458
C         0.60163947483544   -2.92401193103102    0.87496725421168
C         1.88692975724563   -2.35891010137210    0.66207889999530
C         2.06796093692163   -0.95782628486321    0.54501890912815
C         0.95858280480827   -0.09511677463236    0.56409065020284
C         1.06194542870352    1.38672738410453    0.29597022725419
C         2.46147963346620    1.95792035468821    0.51071058853936
C         0.60610568610640    1.61587460785682   -1.15434174670211
C        -0.33840880744182   -0.65998926312340    0.76752114721027
C        -0.51489281360179   -2.04067747750969    0.93549765033092
H         1.24468483908965   -4.95669047168089    0.69763320676261
H        -0.51352545442238   -4.74823326652842    0.74455747159151
H         0.44280940821628   -4.54943254632750    2.21203056806478
H         2.75847729524352   -3.00569413616522    0.66857597947209
H         3.07213606733992   -0.56435250194447    0.45111557977400
H         0.36705429887575    1.90489476308839    0.96598131306573
H         3.15461278053561    1.58740729632599   -0.24086166400321
H         2.42651662861076    3.04064740516589    0.42500547290797
H         2.83784578065212    1.70813429443533    1.49998872166810
H         1.20025677433949    0.99926442584620   -1.83581572583923
H        -0.44620815141782    1.36462676549687   -1.27546398661899
H         0.74393674868060    2.65754468561944   -1.42931607280774
H        -1.19127762882557    0.00473821577834    0.85212495509973
H        -1.49729509614771   -2.44152590622921    1.15749007856451
C         0.20331188611356  -11.43542592264686   -0.46089557989965
O        -0.92991720455048  -10.69255502927690   -0.86833084612872
C        -0.79102359133875   -9.36609728270408   -1.14129741263570
C         0.42661925662161   -8.66009231749664   -1.04523774767957
C         0.47077526568621   -7.32601464870254   -1.33696727701968
C        -0.68357545403704   -6.62376386075321   -1.73850705914323
C        -0.65981875101701   -5.25222669555524   -2.04016377854318
C        -1.80397890532937   -4.59858030212652   -2.44558884682590
C        -1.73141547699139   -3.18274384333431   -2.74589696089442
C        -2.58051410667076   -2.32467842184373   -3.44240610611180
N        -1.98817093543677   -1.12312429534878   -3.42213263835715
C        -2.47685187750964    0.16295841320624   -3.86489831033594
C        -3.62684186161563    0.01847896975214   -4.85677958471180
C        -2.90827715668163    0.94771671313319   -2.63631003487034
C        -3.09344381594434    2.32330556771920   -2.70211229525894
C        -3.49932778790931    2.98759542827888   -1.55626886481822
C        -3.70799481005708    2.25764205740599   -0.39503392766737
C        -3.49472034697799    0.88954200857316   -0.43618980796028
N        -3.09958998605950    0.24822009166747   -1.52505595090350
N        -0.84801634727279   -1.19877241423051   -2.77258109704628
N        -0.69293375310058   -2.41578206819934   -2.35994201572985
C        -3.02047418764213   -5.30955265560472   -2.55964815787307
C        -3.06842256560927   -6.63894147689222   -2.26114296055612
C        -1.91051728367405   -7.33604540047985   -1.84374442815777
C        -1.93526572617824   -8.70345608304260   -1.53613177334623
H         0.97380924511352  -11.44135378253997   -1.23627728264730
H        -0.16025112587835  -12.44862379168148   -0.30444785227288
H         0.61614551244977  -11.04816084641755    0.47407770843204
H         1.32721982144129   -9.17070464992842   -0.74537819348393
H         1.40689982486137   -6.79255411690509   -1.27139722086226
H         0.27520227837065   -4.70771064772667   -1.97371414139285
H        -3.51019608436740   -2.51830627953406   -3.93168768343248
H        -1.63364749728684    0.68053786022461   -4.33624628334283
H        -4.50286220588125   -0.40535710413047   -4.37398268720520
H        -3.89328691810206    0.99873718862769   -5.23971151354017
H        -3.33061175354826   -0.60702198001800   -5.69404579170665
H        -2.91809684253103    2.85746835709115   -3.62147954688361
H        -3.64892503026084    4.05598387944742   -1.56857361264375
H        -4.02594043450299    2.73693749383735    0.51614753209062
H        -3.65133166712875    0.26871047915636    0.43555822437841
H        -3.91132551906644   -4.78919130032692   -2.87113834397922
H        -3.99564084982896   -7.18552509283087   -2.34091039622773
H        -2.85656367861580   -9.26018565639810   -1.60941428983785
Cl        2.16425433848200   -1.90837755620304   -2.76710663141502
