62
 energy: -87.004444142108 gnorm: 0.000119482783 xtb: 6.4.1 (afa7bdf)
Ru       -0.69802499391508   -0.97314562574557   -0.48056851740801
C         0.14371676224985   -2.80141004290423    2.27226470451965
C         0.34177691242485   -1.57636825567284    1.43628231617835
C         1.32400486321090   -1.54819127399328    0.40783313830452
C         1.55771553366733   -0.37807929119028   -0.31679400648457
C         0.97327396900806    0.86640886177467    0.07779988229526
C         1.44683336280457    2.17329699468698   -0.50837639305575
C         2.76750958603950    2.55989488091365    0.17026973558615
C         1.61571021105825    2.11132922982077   -2.02747794868673
C         0.03451860068348    0.84533926291133    1.10569054831162
C        -0.36121602130696   -0.37935053081881    1.70849966548373
H         0.34835519959382   -3.70084240847751    1.69663351672431
H        -0.86664553661113   -2.84474084357940    2.67182841930205
H         0.83985124093197   -2.77146978693038    3.11061130293391
H         1.90718510247320   -2.43813663242337    0.20331161246504
H         2.31630471654189   -0.37897189061975   -1.09072735630798
H         0.70337260710879    2.94329367257597   -0.27612891984325
H         3.53157365215461    1.81029663446431   -0.02233687606988
H         3.11486379194167    3.51236496918091   -0.22025083019451
H         2.63559206009325    2.65278022424524    1.24547471781892
H         2.49976585308199    1.54282298349614   -2.30616020780736
H         0.74897524566296    1.64752218834811   -2.49735207844119
H         1.72606431451958    3.11509490163592   -2.42883784632177
H        -0.37493010321427    1.77699374182437    1.47457158113490
H        -1.06613485341839   -0.35683625318140    2.53314896809844
C        -2.71414866322437    1.57826754795868   -0.52549437420597
C        -3.45067787692187    0.29310998305074   -0.68491059643769
C        -4.83174943635727    0.28441491832727   -0.87033172483970
C        -5.50197182598722   -0.90937538400076   -1.06688693958515
C        -4.76874042324351   -2.08388089360067   -1.10278958514965
C        -3.39788954999318   -2.01232608041514   -0.90347331986371
C        -2.49549357317358   -3.13764903906162   -0.95555080779993
C        -2.53285576838957   -4.50525966254818   -1.15986571603144
N        -1.25109229524789   -4.90109590632598   -1.07988248502517
C        -0.71648771759002   -6.23742450835355   -1.20343843358439
C        -1.24788933820006   -7.13701852771913   -0.08470218935937
C        -0.62323620463689   -8.52435174313662   -0.20990225181628
C        -0.93194772795170   -9.12896456699163   -1.57671317370171
C        -0.42392410162019   -8.21868282246313   -2.69167201388962
C        -1.04786218728642   -6.83016320647385   -2.57447888855646
N        -0.45484212103618   -3.87509534790752   -0.84244879796771
N        -1.18771454606630   -2.82269357421080   -0.76915268587051
N        -2.75401957592446   -0.84524111017740   -0.65994346716408
H        -2.61258896803851    1.82568543448008    0.52952349976776
H        -3.25543851599815    2.38359947807437   -1.01228146446537
H        -1.72396515449598    1.49343275057545   -0.98156923375206
H        -5.36431347737162    1.22086466315707   -0.86724357542824
H        -6.56986865336554   -0.92387936693214   -1.20982512639270
H        -5.23333872352757   -3.03675881048016   -1.28875256261419
H        -3.34754745328837   -5.17067239086182   -1.34625652002813
H         0.36759903117916   -6.13024123947406   -1.10519658224472
H        -2.33229390043515   -7.22227787690090   -0.16385866512849
H        -1.00542330621329   -6.70542208111924    0.88713277931960
H         0.45827693278463   -8.45213657819857   -0.08233495634887
H        -1.01011721176864   -9.17106777949370    0.57811515100553
H        -0.46417472281204  -10.11066156270225   -1.66088800797390
H        -2.01012394771336   -9.26589216790107   -1.68113438190698
H        -0.66998776710327   -8.64712531930892   -3.66391772647656
H         0.66283126045585   -8.13804190572792   -2.62923474950735
H        -0.66597046201370   -6.17930928361945   -3.36257495793921
H        -2.12921754145477   -6.91226925537478   -2.69172653591032
Cl       -0.75912156277907   -0.69053649450769   -2.84761906167779
