62
 energy: -93.824499476437 gnorm: 0.000202730997 xtb: 6.4.1 (afa7bdf)
Ru       -0.82676593347752   -0.69943510968525   -0.37432216915551
C         0.06831322910032   -2.42156822197443    2.43289390674875
C         0.26105754021126   -1.23663444091621    1.53988113467266
C         1.21525344808677   -1.26556314238388    0.48525911548478
C         1.44630737077531   -0.13153668654408   -0.29497488163607
C         0.88795776904097    1.13650826244037    0.05937502397227
C         1.36171384668793    2.40981789916252   -0.59608239298705
C         2.70806495505822    2.80441565195829    0.02522903085906
C         1.48291831244371    2.28067555759170   -2.11548894530225
C        -0.02217645150604    1.17303658598291    1.11288347563649
C        -0.41617563760844   -0.01816031718955    1.78012821458276
H         0.21308303281936   -3.35046263809509    1.88678872999629
H        -0.92081261550091   -2.41615556796928    2.88420092343513
H         0.80751745288700   -2.38314267650299    3.23311948477465
H         1.78222826033293   -2.17069886908260    0.30354007880532
H         2.18467528381422   -0.17684515512035   -1.08671101653389
H         0.63687689012965    3.20047699133060   -0.37499972667281
H         3.45570371701950    2.03648752913641   -0.15884662666934
H         3.05565343148201    3.73440286803083   -0.41589043161013
H         2.61113624354755    2.94459005242220    1.09896735484373
H         2.34676140105926    1.68297366561904   -2.39634344864598
H         0.59301205935455    1.81605711693780   -2.53869997910591
H         1.60022879042285    3.26426653332252   -2.56216563649013
H        -0.40804233115571    2.12577634758376    1.45204646000202
H        -1.09620963227911    0.05053403333369    2.62294081486417
C        -2.84577990497305    1.85087391412647   -0.39068292693517
C        -3.58491277696272    0.56416586707173   -0.51766183821407
C        -4.97041824930549    0.55176596450416   -0.66908602861979
C        -5.64361420493389   -0.64465169800145   -0.83578558951827
C        -4.90996264075513   -1.81912750022452   -0.87628974812008
C        -3.53498816671636   -1.74341345823225   -0.71159593108450
C        -2.63202752444955   -2.86849441107749   -0.77001501675632
C        -2.67277593676133   -4.23485551055321   -0.96187185001171
N        -1.38289435938506   -4.63363583527387   -0.89573250956456
C        -0.85756243891972   -5.92963448181087   -1.01328033220917
C        -1.60585268238898   -6.95471267002570   -1.57695232478518
C        -1.07235526454915   -8.23132383407201   -1.68825786944324
C        -1.87218278532204   -9.33516813542627   -2.29659591352452
C         0.22377131773702   -8.44241124218972   -1.22051474726757
Br        0.98182311292809  -10.21028992201330   -1.36622646715954
C         0.99780767739192   -7.42872447103945   -0.65692826412886
C         2.38429987177396   -7.68135810832737   -0.16681318211798
C         0.43453570908175   -6.16559225853619   -0.56064849169775
N        -0.58424697841523   -3.59390733034260   -0.67547434461775
N        -1.32054970487638   -2.54736170963878   -0.60571107621963
N        -2.88681627153561   -0.57303630188199   -0.49720970522502
H        -3.40471770925053    2.65305423306688   -0.86230953302482
H        -1.87190177572997    1.76445251735294   -0.88052457719498
H        -2.70854878804889    2.10360319956853    0.65907543270389
H        -5.50406687457983    1.48757764434238   -0.66346508134778
H        -6.71463995413039   -0.66204277614939   -0.95236605534260
H        -5.37789603340630   -2.77453560427611   -1.03926609263013
H        -3.49480886793950   -4.90014572213756   -1.11124437942509
H        -2.59813313543080   -6.77646449438862   -1.95529540071012
H        -1.99712575008847  -10.14908329354841   -1.58341674123623
H        -2.85164992047725   -8.98353399205708   -2.60363730923808
H        -1.35664517912187   -9.74130350958609   -3.16612195252672
H         2.82172503067559   -6.77577029994314    0.23946511451977
H         2.37859136874358   -8.45004358302816    0.60495843311806
H         3.01260012766067   -8.04277840318855   -0.97998712344031
H         1.00193678116854   -5.35465534518407   -0.13659470099834
Cl       -0.96615055146443   -0.47712470729190   -2.74257636986922
