58
 energy: -98.400613510118 gnorm: 0.000172865177 xtb: 6.4.1 (afa7bdf)
Ru       -1.24370533284730   -1.12885075946685   -0.15395698160453
C        -1.35528459466635   -0.18396134740247    3.17414869142058
C        -0.61177173913119   -0.25963130659211    1.87865713864367
C         0.22344008198439   -1.35709147552713    1.57278867108870
C         1.02733184328794   -1.35549755543033    0.40114276133960
C         0.94749355401853   -0.30738915066827   -0.52141130166315
C         1.81886294635671   -0.26791154959941   -1.75186909369138
C         3.24040567638702    0.13832520894189   -1.34356982826323
C         1.82029902728511   -1.60503374710307   -2.49448038215643
C         0.10463360668012    0.80400565330718   -0.20740184003727
C        -0.62278408027248    0.84708050307611    0.97837614567763
H        -1.45008361303884   -1.16375639865221    3.63259160582929
H        -2.34287252618074    0.25025470698338    3.03695302959206
H        -0.80392528793153    0.45876298473202    3.86073054437206
H         0.34887260862517   -2.15318818126568    2.29912001243800
H         1.72569008295105   -2.16633447176295    0.23782297125551
H         1.42004461237943    0.49594517266926   -2.42873071813003
H         3.67477630121008   -0.60370195402400   -0.67833655010229
H         3.86682339162899    0.21673482024085   -2.22797253723639
H         3.23877399121123    1.10112552227475   -0.83743155091678
H         2.35206094060968   -2.36811162078231   -1.93342898355298
H         0.79701813537691   -1.93641784282133   -2.66570414323015
H         2.31131361499260   -1.48856782923951   -3.45712142029123
H         0.10855378073890    1.66216097652223   -0.87142463657570
H        -1.17215181211307    1.74185155203603    1.24909229748328
O         1.04221683715020   -9.94381485712936   -4.47389257892544
N         1.49488289474775   -8.80796135068350   -4.42503726941834
O         2.50717485895268   -8.47050923312431   -5.02396341773537
C         0.81551341279490   -7.83962888798898   -3.64074735745505
C        -0.33945207979700   -8.20420609230062   -2.94846626692961
C        -0.99965253858347   -7.26333254893786   -2.18946634024984
C        -0.51439532607958   -5.95369327372789   -2.11600479648136
C        -1.18945937672038   -4.94764025007414   -1.31993713734534
C        -2.33753870580209   -5.03120106784507   -0.53963352213405
N        -2.49163909763526   -3.80593929957002   -0.01001880452337
C        -3.41991431500826   -3.32713493766067    0.98330556777279
C        -4.04401829704968   -2.00874805591602    0.58863980354645
C        -5.41785074423907   -1.83129206311620    0.68320421529065
C        -5.98272767468459   -0.60455651036261    0.37963478630043
C        -5.13068527478483    0.41703610015878   -0.01993346363240
Cl       -5.73883252884488    1.98303030370069   -0.43373764507643
C        -3.76711655342502    0.17167644679314   -0.10128910890074
N        -3.23226318604632   -1.01132325380754    0.20162625670099
N        -1.50258822661065   -3.02766886873344   -0.44326822583599
N        -0.72532296065001   -3.67872226966442   -1.21337186178684
C         0.64545519293182   -5.60197461282376   -2.81491836903941
C         1.31080623900674   -6.53673963942026   -3.57508703989680
H        -0.69357568714644   -9.22049421766277   -3.02155489954241
H        -1.89086580244470   -7.54695376773062   -1.65600823608052
H        -3.00573248779879   -5.84131574643655   -0.33961331810726
H        -4.19361331189718   -4.08027955412439    1.13289458018710
H        -2.87116784749606   -3.18697866067249    1.92676522699984
H        -6.04632819164838   -2.64878070638484    0.99625517499694
H        -7.04562142621771   -0.44435913241580    0.44417069301994
H        -3.09768229717402    0.94957770584593   -0.44689634322170
H         1.00454637825270   -4.58806574531785   -2.75317159342607
H         2.20602355503922   -6.28788241135599   -4.12283413988509
Cl       -1.90671064075178   -0.87685045194239   -2.43674147095745
