58
 energy: -100.006843164872 gnorm: 0.000371592022 xtb: 6.4.1 (afa7bdf)
Ru       -1.24005354249864   -0.20067317499860   -0.12235836363016
C        -0.71880047305714   -2.62839566809253    2.30747390833770
C        -0.19196116771021   -1.51273583266428    1.46513980407099
C         0.42503131518167   -1.78804716375919    0.21281819638907
C         0.98040638413051   -0.75666497177968   -0.54681107740291
C         1.04023681817616    0.58142946122745   -0.05257912288857
C         1.85162792450747    1.64510933316672   -0.75373068747657
C         3.32405216671168    1.45900294767834   -0.36321714681911
C         1.68800057135651    1.61904014560297   -2.27416902288521
C         0.44910601785573    0.84646524723371    1.18828924278224
C        -0.20940351225912   -0.17535956782032    1.92246084886867
H         0.11886176576606   -3.11620294093197    2.80628168675272
H        -1.21784787925066   -3.37763000105795    1.69675023913094
H        -1.40032472985288   -2.26320388220102    3.07055797245889
H         0.49811317052353   -2.81363284245344   -0.12896107251972
H         1.47152609554448   -0.99372489061153   -1.48307216922355
H         1.52554817582993    2.62507801899777   -0.38772756355730
H         3.68877903350331    0.48941588406017   -0.69449736957582
H         3.92736160080465    2.23063918302387   -0.83330634342607
H         3.45119982909023    1.52802654344877    0.71445741276246
H         2.22112318236644    0.78053330361985   -2.71553710467166
H         0.63823164950940    1.54327211596050   -2.55395365612722
H         2.09262558929057    2.53094625023539   -2.70482806661746
H         0.53662217223110    1.83655514438032    1.62274985448401
H        -0.59135122549701    0.04620937184943    2.91296654131488
F        -4.47456129673309   -9.35852882041930   -2.33985124857157
C        -4.21699452276796   -8.39302158239116   -3.25443896583550
F        -5.24276477041286   -8.45593630653934   -4.13246109547443
F        -3.13010193508431   -8.80769372669126   -3.92593763493940
C        -4.07012261913934   -7.03967844277233   -2.63315512300518
C        -2.85701676937581   -6.36333826380194   -2.67256405583946
C        -2.75846631803435   -5.11843387168351   -2.08380495616723
C        -3.86212396859639   -4.54291512384764   -1.45451488723501
C        -3.72650493529535   -3.22922197407648   -0.84860138506441
C        -4.67126627686822   -2.41256668767855   -0.24023432438846
N        -3.99275310989567   -1.31608484875336    0.14420688236935
C        -4.42292848777041   -0.19207413904495    0.93254973886033
C        -3.91586817269494    1.12219285798087    0.38961446673902
N        -4.80497818020516    2.08540187999462    0.29823463429821
C        -4.41532757633601    3.28342691729779   -0.10722755599671
C        -3.08506340374843    3.53218166451793   -0.42421804164555
C        -2.21151604363140    2.46558346623329   -0.32815383315179
N        -2.61221723389391    1.25441763411789    0.08248731335195
N        -2.72046913121450   -1.45900420992357   -0.20829094890556
N        -2.54080897576923   -2.57763451905903   -0.79419381622762
C        -5.07349247936522   -5.23362407642238   -1.41876104079306
C        -5.17827406215596   -6.47836322969000   -2.00637168138396
H        -2.00634142673001   -6.80989569091843   -3.16236936261954
H        -1.82928407419307   -4.57412515813320   -2.11100711024041
H        -5.71856357141931   -2.53670247463802   -0.06804477464259
H        -4.04436450320790   -0.31282920304976    1.95818025315386
H        -5.51302445943571   -0.15442475538748    0.95880562933519
H        -5.18416848843052    4.03780656041823   -0.17620060362326
H        -2.74614438811584    4.50022612896701   -0.74918892182286
H        -1.16690128536799    2.56851801571560   -0.60121581137473
H        -5.93468077455956   -4.80604602822002   -0.93415752096446
H        -6.11080230742288   -7.02047827384406   -1.98686052522177
Cl       -1.69573038448404    0.15125226768368   -2.45024463358570
