59
 energy: -91.057260117988 gnorm: 0.000264398358 xtb: 6.4.1 (afa7bdf)
Ru        0.21432211678859   -0.20092531955437    0.11685439425873
C         0.77919296827572   -1.98657367194848    3.10355349194367
C         1.14345513038623   -0.88612093145135    2.16694830478804
C         2.05410079770737   -1.11739582789689    1.10511363996067
C         2.50387414451541   -0.05737111853906    0.28718933766172
C         2.03438554460681    1.26017206440366    0.47083933805134
C         2.60327440377822    2.42249414859215   -0.30753568524301
C         4.01373274382771    2.73038371889451    0.20874390335771
C         2.62150975122028    2.14617507297800   -1.81311605153528
C         1.06354953267852    1.47146847114052    1.48007856193117
C         0.62393490736997    0.42319743831167    2.32018627175622
H         0.58699121178149   -2.90830999233334    2.55767972270050
H        -0.08862086160511   -1.73072974239864    3.70449628634480
H         1.61838996647530   -2.17131766420376    3.77420459084225
H         2.48510412570487   -2.10471620390933    0.98329274173700
H         3.26448848161979   -0.25706844708967   -0.45840004661955
H         1.97455913179751    3.29997829484603   -0.12236052605925
H         4.68062975449755    1.88967438680359    0.03393138983581
H         4.41281635660025    3.59695541242037   -0.31068735114634
H         3.99615686699294    2.94372081150102    1.27459126762627
H         3.39991625677211    1.43342917931799   -2.07351331066982
H         1.66695049660915    1.73861790150131   -2.14794558159439
H         2.81612560540170    3.06532416386830   -2.35868058977489
H         0.71838305959597    2.48184268752261    1.67675005762262
H        -0.02651721646539    0.65133147565141    3.15698136756948
C        -3.30769420187662   -0.68582563742521    2.11499379196096
C        -3.27105248998861   -0.58139319505160    0.58138448948647
C        -2.83911004144426    0.82252875438674    0.21244166006981
C        -1.60771707011827    1.18800244839220   -0.33910777854256
C        -1.36124658946444    2.54594264400657   -0.55871056909844
C        -2.31569767947135    3.48009335025991   -0.19698023733828
C        -3.50686307628396    3.01163371417641    0.34380594241751
N        -3.75280127273391    1.73066230406361    0.53427097392032
N        -2.43587257656919   -1.65907793084395    0.09058189462294
C        -2.84161002029547   -2.91688378560512   -0.16889439027386
C        -1.68168068650175   -3.68081332124030   -0.22978084283037
C        -1.49446804293637   -5.09512810623323   -0.49957058949343
C        -0.20226610289925   -5.59417270251763   -0.66122931557807
C         0.00540604517917   -6.93094196202274   -0.93700498435264
C        -1.08748742629746   -7.77604082123183   -1.05108368518458
Cl       -0.83404013918477   -9.46415213897524   -1.40949574472835
C        -2.37903406003682   -7.30067870166662   -0.88810389507249
C        -2.58046988163138   -5.96169444322862   -0.61244387110406
N        -0.64859654222824   -2.84470005642915    0.01056968633680
N        -1.10735288427494   -1.66881063890116    0.20314606009244
H        -2.30233206517539   -0.56141214437032    2.51254099880403
H        -3.94736779201555    0.09728610252983    2.50685029107858
H        -3.69836731609558   -1.65209618878566    2.41932901425856
H        -4.27919835933815   -0.73443286946332    0.18555545890073
H        -0.94860002759740    0.46088963574851   -0.94222690989916
H        -0.44023434236991    2.85767467668895   -1.03116109302593
H        -2.15097366590384    4.53373047263081   -0.34544656447466
H        -4.29978300292969    3.68536117260585    0.63357889644596
H        -3.87069230334662   -3.17713447855968   -0.29207995789883
H         0.63339078359240   -4.91857715638217   -0.57864331442896
H         1.00241557703650   -7.31860983254144   -1.06732793023343
H        -3.21534440642248   -7.97425997415757   -0.97825895471313
H        -3.58648744717211   -5.59819393938184   -0.48422994264987
Cl        0.50721782986335   -1.00023255884220   -2.14787311283047
