67
 energy: -105.090099504178 gnorm: 0.000749993305 xtb: 6.4.1 (afa7bdf)
Ru       -0.66147133664039   -0.80383314180629   -0.06305897009653
C        -0.14575841982540   -1.00898535625182    3.39397586300919
C         0.17543376033135   -0.43870876970933    2.04825563383010
C         1.18916902338756   -1.00641232138338    1.23356758452907
C         1.60595683096568   -0.38400607659780    0.04091814609149
C         1.03186358816593    0.84343896559069   -0.37452777832622
C         1.58956994715286    1.64134104646827   -1.52564633934102
C         2.62086489965992    2.62214051718219   -0.94637788855739
C         2.22188228082110    0.78604866214424   -2.62234081316558
C        -0.01499407381052    1.38659387015658    0.40249702125095
C        -0.44000228373112    0.75217998403535    1.58958026288225
H         0.01210356440596   -2.08362548094684    3.41242598425093
H        -1.17103472834350   -0.79079634870828    3.68105129354999
H         0.51538351743690   -0.55788096334797    4.13464847526562
H         1.70832421837385   -1.89535031518435    1.57516600522947
H         2.44119604830408   -0.79904079922941   -0.50776730249961
H         0.77140225763337    2.21892484052150   -1.97081135430212
H         3.43583689134086    2.07862648218915   -0.47426501968183
H         3.03036231571291    3.23182507608199   -1.74678673880586
H         2.16625818402525    3.27914061126884   -0.20902287041085
H         3.15646615054453    0.34108567932893   -2.29162003694892
H         1.53947851679859   -0.00206467216829   -2.93400795396230
H         2.43681468676762    1.40858145651962   -3.48697426891842
H        -0.42537056144725    2.35315484774156    0.13159191438509
H        -1.17825261666654    1.23882609002031    2.21947728280749
C         1.91163643484489  -12.32917351728214   -3.62462411266928
O         2.56095590469461  -11.32975609437847   -2.86659977281831
C         1.94072761502453  -10.11865649992234   -2.72723672985941
C         0.71012176557419   -9.78228222012162   -3.26016695433245
C         0.17563231946695   -8.51706937794237   -3.05421093714575
C         0.86582239210279   -7.56982381288057   -2.32447885132387
C         0.29125977389232   -6.20087181603011   -2.08877290813128
C        -0.23888519882871   -6.08426332325205   -0.64896769920823
N        -0.86989319816094   -4.80867194754365   -0.45381233924145
C        -2.17804586554729   -4.52182068505360   -0.54302069436749
C        -2.25491876946223   -3.15229468692894   -0.35057896967886
C        -3.24255859278163   -2.10626673972012   -0.28455382091806
C        -4.61527536069193   -2.26370626585818   -0.45331141081082
C        -5.43645573376892   -1.15535283593378   -0.37688254202839
C        -4.84222156526681    0.08023945020910   -0.13694490734485
Br       -5.90008768307509    1.66839195436420   -0.02519018065164
C        -3.46804249750853    0.17289063341736    0.02409981616549
N        -2.68085667501634   -0.89565696004799   -0.03655023259196
N        -0.97125063980817   -2.72845062870578   -0.16654364775918
N        -0.15849932286805   -3.71941163919580   -0.22971717336490
C         2.10623699400280   -7.90311230456577   -1.78195096445827
C         2.65080056393241   -9.15934484287126   -1.97082504252699
O         3.85463785285615   -9.57747488500002   -1.47942503512919
C         4.60590823141051   -8.67186033236182   -0.69368266125844
H         1.76325315576727  -12.00830743734358   -4.65963093325495
H         2.58055611284854  -13.18660119314845   -3.60212410371123
H         0.95085462764728  -12.60308153451432   -3.17987419238049
H         0.15495050177018  -10.49897058962889   -3.84250711840573
H        -0.78468514081236   -8.28159005568575   -3.48539966826847
H        -0.52339081959050   -6.02275053019596   -2.79089788284337
H         1.05682347302567   -5.44091804470362   -2.24632322736050
H         0.58963188136338   -6.16961949436474    0.05381228834022
H        -0.96784093870710   -6.87090454268358   -0.45508034057921
H        -2.93191068030518   -5.25806774861834   -0.72539761662330
H        -5.02292659413823   -3.24077344340568   -0.65060228088748
H        -6.50321744147429   -1.23866548504589   -0.50678569289856
H        -3.00114606413320    1.13431732410385    0.19218662158572
H         2.64795744847435   -7.15982080642214   -1.22094748224013
H         4.05574193822638   -8.38126906007014    0.20496458836243
H         5.50368150392350   -9.21692102166979   -0.41086114224322
H         4.88331872010674   -7.78509587823233   -1.26950387180818
Cl       -1.03853109042375   -0.83417196467426   -2.41847930540005
