69
 energy: -103.891621631412 gnorm: 0.000222164814 xtb: 6.4.1 (afa7bdf)
Ru       -1.33500224089664   -1.02757528192417   -0.20918551548879
C        -1.30569317409197    0.36150227003157    2.95681629445475
C        -0.60689125662088    0.06311147018957    1.66714345166625
C         0.15899999846039   -1.11197903180711    1.49874334093014
C         0.94035051719730   -1.31180498806842    0.32829615502994
C         0.89295544923873   -0.39926405214594   -0.72774266433093
C         1.74232506229443   -0.56892238305889   -1.96263865024210
C         3.18434493983912   -0.16163390694898   -1.63552606306885
C         1.68302398174946   -1.99617863831560   -2.50902377428130
C         0.10212636234477    0.78115665071137   -0.56367718603676
C        -0.58922502548678    1.03150089774548    0.61960554976311
H        -1.41346323613261   -0.53325715095437    3.56315634630125
H        -2.28580337064127    0.79900128807631    2.78084817866348
H        -0.71588861880964    1.08452787311470    3.52020304805793
H         0.25824277999126   -1.80921718146809    2.32408379999139
H         1.59203417409807   -2.17393101050596    0.26939917805331
H         1.35712111024716    0.10490777565548   -2.73626634801549
H         3.60019541298439   -0.81008604253996   -0.86817014041005
H         3.79980117549442   -0.24387478978223   -2.52713593501025
H         3.22553948893459    0.86627581445819   -1.28205950848800
H         2.20179794035246   -2.69418293183959   -1.85743908081145
H         0.64613659605890   -2.31483502140044   -2.61073585556283
H         2.15285472210415   -2.03382360830254   -3.48863678410689
H         0.12645183453628    1.53359852485069   -1.34538423011489
H        -1.08774464784879    1.98268097543584    0.76996989070157
C         1.73183142237400  -11.60530978618985   -5.01579863478768
O         2.24783728599008  -10.29239397944493   -5.11541497012879
C         1.64337156915477   -9.29934161405203   -4.40536225803057
C         2.22040802104015   -8.01746171850615   -4.57366990727996
C         1.71224878184301   -6.93639713898433   -3.92145122778074
C         0.59779144627675   -7.06703041298479   -3.06144244446159
C         0.05064338437048   -5.97105344616308   -2.37642232267451
C        -1.03708556939217   -6.12416051985942   -1.54400271576397
C        -1.58141200636137   -4.97420420588185   -0.84690627013704
C        -2.66567520613873   -4.87552273690203    0.01609000806941
N        -2.71015756342637   -3.57940509181051    0.37987931405966
C        -3.53872394421122   -2.89971795697168    1.34297309951318
C        -4.13127477334403   -1.63437661871100    0.76754826322805
C        -5.48975756047340   -1.37598648189180    0.88767729811416
C        -6.00798031378408   -0.18946242071936    0.40357456545145
C        -5.15259719268775    0.72767782968982   -0.20327494702168
C        -5.65013027431571    2.02924498433154   -0.72969332605333
C        -3.80979447945887    0.38520833366220   -0.28901716000246
N        -3.30445646421214   -0.75542313120316    0.18345950694009
N        -1.71944208221344   -2.93580270639795   -0.22413931677087
N        -1.04012495246673   -3.73652716124872   -0.95013634304135
C        -1.61027399571732   -7.40400683291788   -1.37787926113906
C        -1.09455171888895   -8.48336258962175   -2.03438883661324
C         0.01907401399407   -8.35199773090038   -2.89193660230130
C         0.56047536070971   -9.45856971210293   -3.57605096696620
H         1.79615615092861  -11.97699124699114   -3.98978488085289
H         2.35927147823719  -12.21236009840252   -5.66438104433639
H         0.69581984006328  -11.64830321335574   -5.36195518923091
H         3.06909408092198   -7.93763939143578   -5.23461680919230
H         2.15492880398913   -5.96122933517461   -4.05557175166538
H         0.48537206298027   -4.99235386198569   -2.50790604316335
H        -3.36115100746532   -5.60278168932289    0.37452613662400
H        -2.91392632220101   -2.63779305999534    2.20974045518700
H        -4.33004872454682   -3.57583877470080    1.66544815189703
H        -6.13229549283535   -2.10047854462206    1.35965047551010
H        -7.06137915705764    0.02361280325849    0.48684346827380
H        -6.58247610949165    1.88750056618661   -1.26976626458875
H        -4.92297612827760    2.48841076795965   -1.39206866165584
H        -5.84737957675629    2.71021434227098    0.09670731419325
H        -3.11281968636680    1.05047988212212   -0.78637469189142
H        -2.46138369922530   -7.52832549724721   -0.72813215068216
H        -1.53571440391701   -9.46078573397778   -1.90610404659184
H         0.10011943163160  -10.42280100759397   -3.42870191938285
Cl       -2.04355070474700   -1.06018358254042   -2.49455459049026
