55
 energy: -88.208038033035 gnorm: 0.000174146584 xtb: 6.4.1 (afa7bdf)
Ru       -0.49588923108683    0.22931688107117   -0.01585389446260
C         0.17797216384951   -1.91327133174818    2.62097083895176
C         0.64306139646085   -0.87372476943638    1.65339178713893
C         1.23834546439176   -1.25654819837725    0.41778018370073
C         1.73354360277637   -0.29177809975216   -0.45968404683233
C         1.76461494552295    1.09163861706900   -0.10307911750764
C         2.52284025939446    2.09979892622156   -0.93324949459641
C         4.01492552518956    1.97029258625330   -0.59831227340360
C         2.29024719753730    1.93517294082363   -2.43580763291718
C         1.20408715625035    1.46319693244377    1.12314006838123
C         0.59548372988237    0.50187844315903    1.97405496430121
H         1.04361286220538   -2.31191584746548    3.15036307509395
H        -0.30142607599307   -2.74202979522361    2.10452740084189
H        -0.50418588312598   -1.49490151357228    3.35580566039253
H         1.33563626752482   -2.30902969424739    0.17900483180402
H         2.20483933164571   -0.60686204786270   -1.38297180949970
H         2.19502873996472    3.10372649533386   -0.64125581470570
H         4.38213392497774    0.98099699689452   -0.86160202885862
H         4.58154026150274    2.70695471132022   -1.16113481202724
H         4.18966615305554    2.13447733213406    0.46226041740011
H         2.81157681326115    1.06372630797772   -2.82456268343225
H         1.22960276377236    1.82677309746164   -2.65749748944129
H         2.66382494099790    2.80757520043020   -2.96524935873528
H         1.27503561919000    2.49332163212652    1.45509614464148
H         0.23249593228542    0.81166301976437    2.94802790338483
Cl       -3.06264280427459   -8.52241631035845   -2.65461129525856
C        -2.99559787748675   -6.90314425247767   -2.00841611525868
C        -1.81083639921584   -6.18749812095425   -2.08202914498343
C        -1.76582836363008   -4.90429223552373   -1.57440565913748
C        -2.89616633910411   -4.32973690204351   -0.99350529827013
C        -2.82094150207040   -2.97472137391524   -0.47622962830638
C        -3.79683122776393   -2.17319783439749    0.10338987971656
N        -3.17343885533090   -1.01743784751043    0.40072747018264
C        -3.64643639812522    0.12947584519014    1.12933240698919
C        -3.22797920426847    1.43129721529842    0.48951187335670
N        -4.17308360662933    2.33449491947116    0.35665161682146
C        -3.86192915409246    3.52346563006816   -0.13438741781058
C        -2.55508086661702    3.82595010611081   -0.49837804257544
C        -1.61987299996545    2.81849510752419   -0.35616189539526
N        -1.94093981634001    1.61614504622404    0.14127230811223
N        -1.90436735870509   -1.11292698428006    0.02646445156344
N        -1.67378080438739   -2.25558899955029   -0.49293011661635
C        -4.07738194839528   -5.06701241499079   -0.92574037111156
C        -4.12895933953555   -6.35162497142906   -1.43245583389559
H        -0.93957562662123   -6.63243075200104   -2.53406604047036
H        -0.85623322664395   -4.32913106750129   -1.62930686427289
H        -4.83050266755942   -2.34447137028845    0.31189561945382
H        -3.23496454650044    0.09487991204337    2.14876161382306
H        -4.73583225417763    0.10915461278063    1.18455174243982
H        -4.67507434999920    4.22601297450493   -0.23514286277556
H        -2.27926273432526    4.78824565410480   -0.89268180197331
H        -0.58902529638649    2.96110081689511   -0.66217279460903
H        -4.96183046996315   -4.64392777657706   -0.47943419261345
H        -5.04056038163427   -6.92435870312040   -1.38439550515118
Cl       -1.04401144168890    0.40201025389626   -2.34538992156061
