56
 energy: -88.127706014677 gnorm: 0.000212008740 xtb: 6.4.1 (afa7bdf)
Ru       -0.54659207018301   -0.92010069974788   -0.07000185697309
C        -0.80383903406596   -1.38860494242089    3.35780466796643
C        -0.05150544696785   -0.84030928692594    2.18367974152557
C         0.89733767597515   -1.62887237812621    1.48998263502698
C         1.69993083579913   -1.07830540558445    0.46342034479101
C         1.53296176010560    0.25994230121187    0.07458652789334
C         2.42406707234929    0.91827599597513   -0.94960579536635
C         3.65538616006385    1.47218971542010   -0.21860313703918
C         2.84177270069999   -0.01908699707457   -2.08126465535072
C         0.62402107909532    1.07314769430095    0.81557874980252
C        -0.12460348874125    0.54321455714447    1.86180197111015
H        -0.89055079221952   -2.47008310883202    3.29694498523514
H        -1.79852405108483   -0.95490370825961    3.42352537495027
H        -0.26798157637879   -1.14063219006199    4.27417758175137
H         1.08038232862775   -2.64865586947670    1.81362572887392
H         2.47215434156454   -1.68484297252048    0.01035503809786
H         1.87371097807202    1.75738761641348   -1.39048870730216
H         4.22370437468103    0.66235945415396    0.23264725159062
H         4.29604878069672    1.99189344503639   -0.92544037787595
H         3.36469702036749    2.17070620809678    0.56230339337859
H         3.54012835310552   -0.77676638895571   -1.73664828860378
H         1.96806660429035   -0.50686398520383   -2.51035295998586
H         3.32948741116236    0.55323239308411   -2.86611190242110
H         0.58340957250990    2.13529275732479    0.60330794482901
H        -0.73403976694056    1.19397381020642    2.47632704457237
C        -2.84378579207802    1.38990913306729    0.20452783628026
C        -3.43122130538076    0.03165610856520    0.03498790286621
C        -4.81521259120121   -0.13365821544283   -0.01280186065373
C        -5.36347388479117   -1.38220420345416   -0.23968105748948
C        -4.50918149255062   -2.45199239304851   -0.45357716648666
C        -3.14273384261196   -2.22749063861328   -0.38330409344121
C        -2.12881625235671   -3.22339943972712   -0.63790737281027
C        -2.03931329736382   -4.55983364202424   -0.96851254574780
N        -0.71307213185884   -4.80670105912612   -1.06371329612999
C        -0.06745837828566   -6.01931947321148   -1.35307672066586
C        -0.77723276512083   -7.10236141715681   -1.86387964725880
C        -0.11827365296643   -8.28928733137843   -2.12551837340444
C         1.23975563698564   -8.36815095599657   -1.87545438534061
F         1.88403932528552   -9.53498228090969   -2.13045452018497
C         1.96447558581698   -7.29934992876809   -1.37839341613674
C         1.30170699114456   -6.11648801921951   -1.11576038714036
N        -0.01481236672794   -3.70325530283320   -0.80869498365174
N        -0.84975188739488   -2.76313755628205   -0.56025078162172
N        -2.61213213728731   -1.01395696615777   -0.09747174520807
H        -3.51597888887884    2.13709355803129   -0.20665496638349
H        -1.88975313984868    1.44770439780142   -0.32424280185855
H        -2.69447455682028    1.61671898476966    1.25776602492853
H        -5.44655224004802    0.72939044132613    0.11855177790199
H        -6.43195010639444   -1.51659355998479   -0.27524191225754
H        -4.87961208324755   -3.43695094249240   -0.67877194628655
H        -2.79710398128049   -5.29851050957056   -1.11201450658617
H        -1.83049636279601   -7.03414351218104   -2.07502228205124
H        -0.64122461680510   -9.14412296245089   -2.52085509236802
H         3.02213899512180   -7.40314864508382   -1.20289220084208
H         1.83320879647170   -5.26318711640962   -0.73029910231972
Cl       -0.83269439928603   -0.31831456720376   -2.36086967814024
