53
 energy: -84.303461983666 gnorm: 0.000592230981 xtb: 6.4.1 (afa7bdf)
Ru       -0.49353506260539   -1.01167698417318   -0.28996099136382
C        -0.22829507707912   -1.65430513614082    3.12365398596969
C         0.19866002690333   -0.92099064896288    1.89019789396790
C         1.27350718798795   -1.39494213753798    1.09112559927404
C         1.77478069746694   -0.64106651795463    0.01767960012150
C         1.23194336437120    0.63328761671176   -0.28925769774496
C         1.87713326517035    1.55459111628491   -1.29389641417368
C         2.89352573062254    2.42144215294451   -0.53539766846150
C         2.55541622938131    0.82761671366864   -2.45386992275301
C         0.14225984827402    1.09759106673557    0.47662127070919
C        -0.37440240457558    0.32620299201371    1.54270112183488
H        -0.08833361415931   -2.72550682705407    3.01133744631191
H        -1.26871255100373   -1.45145960339687    3.36194635426576
H         0.38225748937696   -1.32112484956843    3.96280744035545
H         1.76256946739191   -2.32474913067063    1.36009199688377
H         2.64270484946387   -0.99780126642173   -0.52054673880336
H         1.10147354384213    2.20823147553738   -1.70813112582696
H         3.67037531187519    1.79823295115033   -0.09870510391819
H         3.35924015027452    3.12102985128748   -1.22362662499566
H         2.41164136086441    2.98569180744504    0.25917902821615
H         3.45833359354973    0.31573523067354   -2.13146606109057
H         1.87680289955012    0.10486720229199   -2.90226367293245
H         2.83588295552462    1.54703873823161   -3.21866441859144
H        -0.23745896315997    2.09807792403353    0.30156578757622
H        -1.15396660665059    0.74192662869710    2.17343450131343
Br        1.93764636458699  -10.37210035937889   -1.61772408744214
C         1.07162062785799   -8.66435356254446   -1.41430178240738
C        -0.20531344432961   -8.48560857893370   -1.92293493191548
C        -0.83065060655195   -7.26080677022106   -1.78036576448411
C        -0.17225800117976   -6.22445120670994   -1.12536764584456
N        -0.77726877718515   -4.96803250060077   -0.96876239387984
C        -2.08037274754092   -4.63398442836234   -1.11125051055144
C        -2.13063490033094   -3.28194796595569   -0.84140958927767
C        -3.09377604634451   -2.20730825879967   -0.77042182806633
C        -4.45654087042791   -2.31225965500857   -1.02152221378304
C        -5.24095164106473   -1.17644737576582   -0.92031630602720
C        -4.63607891136616    0.02533095026495   -0.57623889923158
C        -3.27211572484144    0.05278972142437   -0.34120384109769
N        -2.51270456231983   -1.03518835809602   -0.42182366878201
N        -0.85108130795902   -2.90264950464605   -0.55657617516055
N        -0.05599213358982   -3.90372585312035   -0.63029957439234
C         1.11226596288031   -6.41275015365779   -0.62129423010705
C         1.73773333128195   -7.63529117290402   -0.76599937270459
H        -0.70436218782276   -9.29492091761917   -2.43067968122368
H        -1.81400230370916   -7.12715296017228   -2.19771989211035
H        -2.85157993265156   -5.32885499276608   -1.36317858786852
H        -4.87613873436039   -3.26477448198950   -1.29722203560321
H        -6.30007750504903   -1.22391544708890   -1.11267990587240
H        -5.20930427599691    0.93327694463501   -0.49496418787527
H        -2.77400904404428    0.97934557171400   -0.08929652003785
H         1.61132031720377   -5.59918633466049   -0.12319681282873
H         2.73168902171964   -7.79094389290366   -0.37952307250883
Cl       -0.66469465951805   -0.86320882195468   -2.66994507507078
