56
 energy: -84.998360000400 gnorm: 0.000308709446 xtb: 6.4.1 (afa7bdf)
Ru       -0.75801087091788   -0.78199544337229    0.00267836948135
C        -0.46014333286046   -1.20068879102216    3.45210730481313
C        -0.08069344061061   -0.52136305203748    2.17305965306856
C         1.02239045791954   -0.97537337902883    1.40151276712927
C         1.47828236956730   -0.25675136917095    0.28404279334626
C         0.85880241265034    0.96205944096462   -0.09649097861727
C         1.44629966038022    1.86311016765331   -1.15407736744104
C         2.37742254957905    2.85803072393526   -0.44465213986687
C         2.19886532487233    1.11754368089803   -2.25465260985449
C        -0.26012730302228    1.40111979690369    0.64033398909540
C        -0.73174525415173    0.66244288644824    1.75002892895492
H        -0.24630248523001   -2.26508474757517    3.40876783966376
H        -1.51307706950053   -1.05479080885278    3.67840087788361
H         0.12411490109256   -0.77177278047324    4.26679264937426
H         1.56662502303051   -1.85615104635563    1.72391426883179
H         2.36803621263626   -0.59038799363708   -0.23287925970172
H         0.62785130832491    2.42310496045541   -1.62040214941839
H         3.19400717664818    2.33004131469694    0.04236608132078
H         2.79728895415145    3.54613958956551   -1.17293391810198
H         1.83867722009760    3.43302744549183    0.30449764286040
H         3.13007846567603    0.69552216316703   -1.88565094100992
H         1.58266327725759    0.32065448691031   -2.66634877104398
H         2.44169468479216    1.80730041501078   -3.05880292433703
H        -0.70235500054234    2.36289717374384    0.40514090025971
H        -1.53929976498319    1.06411073111458    2.35407193047286
C         0.73594268797790   -9.98318096680346   -2.68313321801713
C        -0.05534903901805   -8.71237575952695   -2.51302674551768
O        -1.27968984729273   -8.66217989982861   -2.56145615571160
N         0.69512169889646   -7.61352365461338   -2.30127751535862
C         0.10791652631149   -6.31235101260098   -2.11001607156996
C        -0.16827823511639   -6.04214725972390   -0.61451833861203
N        -0.84050233641718   -4.78681220893058   -0.45189291300010
C        -2.14956968394581   -4.53180845606231   -0.62192986617276
C        -2.27108539639419   -3.16837976487179   -0.42342584384445
C        -3.28854466180010   -2.14355541934391   -0.41432223207081
C        -4.64323914585543   -2.33572144653155   -0.65919101002387
C        -5.48834100561079   -1.24071090952368   -0.62070334597918
C        -4.95026348075273    0.00959670320824   -0.34428870395252
C        -3.59060653911001    0.12388377038838   -0.11331385592770
N        -2.77252631993192   -0.92402008942291   -0.13334671767904
N        -1.01509256734898   -2.71356611521225   -0.15337744178306
N        -0.17208190559284   -3.68211524914062   -0.17458392158228
H         0.06212107703444  -10.79636536017452   -2.93568187043254
H         1.47168545754319   -9.86566328220215   -3.47371480869483
H         1.25049740403351  -10.22411016134995   -1.75640774456511
H         1.69498805559401   -7.70699196143836   -2.21710666637211
H        -0.83901460147166   -6.29875884252708   -2.65748610465931
H         0.77326042420681   -5.54861443002677   -2.51284857591628
H         0.77019375169417   -5.99331168860845   -0.06227258145759
H        -0.79741710503757   -6.84327839778133   -0.22220233284298
H        -2.86658171644333   -5.28939668939055   -0.85812433373199
H        -5.00876717598934   -3.32384201688244   -0.88193978028562
H        -6.54299843627517   -1.35607008770339   -0.80890658647369
H        -5.57227396201970    0.88801262737191   -0.31238080870974
H        -3.14437283919378    1.08900318899502    0.08525036710406
Cl       -0.91562355952505   -0.79232272517816   -2.38446221332352
