59
 energy: -87.061434374624 gnorm: 0.000756991190 xtb: 6.4.1 (afa7bdf)
Ru       -0.56169305141583   -0.68221014714105   -0.12547741550643
C        -0.34792922912947   -1.28399122513032    3.30361522006589
C         0.11329007329665   -0.58461373158278    2.06218629939172
C         1.16668235425609   -1.11215434687952    1.27143630419111
C         1.71216413703206   -0.38654406350257    0.19452697646990
C         1.20999737073963    0.89240927986109   -0.13945592770057
C         1.87770655107559    1.77315664639378   -1.16535715676498
C         2.92327894076760    2.62581368876510   -0.43078899168631
C         2.52594854698317    1.00141651943272   -2.31356534876194
C         0.13159353227699    1.40999148949342    0.61747941452243
C        -0.40436344519527    0.68403993719110    1.70012603558190
H        -0.23006289759449   -2.36072250742862    3.21280607720636
H        -1.38817747191737   -1.05431774617615    3.52133339403026
H         0.25692592269047   -0.94737872848015    4.14654142978539
H         1.61806880917694   -2.05723256914533    1.55346060631954
H         2.57282732719926   -0.78130138609336   -0.32822751970650
H         1.11850557386519    2.44018805297805   -1.58963151451919
H         3.68886822331282    1.98953005910622    0.00743383246075
H         3.39875578118573    3.30339008525251   -1.13439062335604
H         2.46371005926710    3.21371640371763    0.35992451812289
H         3.41085741575425    0.46314287156925   -1.98411887758079
H         1.81914683233793    0.29604870339148   -2.74640723184306
H         2.82911581699122    1.69689050040861   -3.09207983961379
H        -0.21556833802056    2.41788047299361    0.41868246780218
H        -1.16541367624337    1.13931760014700    2.32581347389793
C         2.49177819113595   -9.64643253279254   -3.03497395466248
C         1.70048520429250   -9.66877093533189   -1.72368903654261
C         1.02648282305167   -8.34843425021522   -1.50218312233794
C         1.68715852486439   -7.31544056309490   -0.84463410076108
C         1.08500606288179   -6.08611718273961   -0.66826466243850
C        -0.20055019637553   -5.87373864143083   -1.15639182808129
N        -0.80525809403029   -4.62135982917500   -0.95557361527616
C        -2.11594203865209   -4.30478415715944   -1.03469821225540
C        -2.17568668129312   -2.96107346456717   -0.72134672444722
C        -3.15437988329386   -1.91050129362016   -0.56897373513376
C        -4.52261548472418   -2.03052359071571   -0.78183760422049
C        -5.32403988488986   -0.91680350557685   -0.60236068446960
C        -4.73037884739456    0.28000727673384   -0.22267005993307
C        -3.36029414454176    0.32364944445245   -0.03060583164474
N        -2.58418146542029   -0.74459387966181   -0.18433700144936
N        -0.89358660310610   -2.57081642390164   -0.47680011925301
N        -0.08680927852476   -3.55879479769360   -0.61500536027746
C        -0.87028962233261   -6.88989585371504   -1.82970225795743
C        -0.25289486923543   -8.11451899823415   -1.99521437625666
H         3.25318525267570   -8.87065937626764   -3.00725554733862
H         1.83070427277879   -9.44814403735154   -3.87538661880961
H         2.97903491152262  -10.60442506252516   -3.19681881226297
H         0.95537813339757  -10.46426387987512   -1.76939829094090
H         2.38189745934858   -9.88169313128721   -0.89882805490630
H         2.68243904009972   -7.48112719429379   -0.46226986790713
H         1.59354906977598   -5.28719968792181   -0.15571175989078
H        -2.88475308666284   -5.00602547611364   -1.27541717394008
H        -4.93203266356269   -2.97753385723400   -1.09015412457321
H        -6.38778440131072   -0.97622940681455   -0.76330597749735
H        -5.31689280782245    1.17211690658181   -0.08177564832536
H        -2.87064132446478    1.24805621367738    0.24476236171086
H        -1.85417555753501   -6.73220546742685   -2.23909964621643
H        -0.77256779259581   -8.90309143655358   -2.51739916213900
Cl       -0.83700337674214   -0.39851678730508   -2.48462799238524
