68
 energy: -99.685597705529 gnorm: 0.000668310047 xtb: 6.4.1 (afa7bdf)
Ru        0.19977302665125   -0.79756354594856    0.68033771479446
C        -0.05009327276066    0.93707027270402    4.32477397761093
C         0.37475984095312    1.14890128623204    2.91531726643608
C         1.46826842441231    0.45484218858194    2.36959595442889
C         1.92924012662419    0.74057958380876    1.07184059055274
C         1.19475370263445    1.60439824454244    0.23621636103368
C         1.72293356986505    2.06795218943064   -1.10369107941954
C         2.34482743596900    3.46155985087849   -0.91644947944993
C         2.76052379563761    1.12823410016528   -1.71846757753676
C         0.12056325586202    2.32967071190417    0.81993829952739
C        -0.24216821574249    2.14094986655482    2.13323967809298
H         0.36926791221956    0.02527966606162    4.74075066566809
H        -1.13405880337189    0.91430720586698    4.40631281787219
H         0.29806381802848    1.77493169497930    4.92954428672068
H         2.07952235370486   -0.16891962587165    3.01620855497392
H         2.89569035832063    0.36247721769508    0.75997010798912
H         0.87699361509318    2.16809534579278   -1.79354890791273
H         3.15742799803094    3.41630848212979   -0.19518184114681
H         2.74666469186117    3.80814107779552   -1.86450453881164
H         1.61265709902159    4.18377796377959   -0.56802769276988
H         3.72061688542816    1.23122962188009   -1.21789431646111
H         2.45299850445695    0.08557698476594   -1.65387498301131
H         2.90776331190579    1.37656206116543   -2.76640412992584
H        -0.37434474138836    3.08028338959905    0.22027942251717
H        -1.00301278511505    2.75714724638653    2.58752883335175
C        -0.30723667578766   -0.92889570421301   -1.36449472944345
C        -1.18844331068895   -2.39649224447513    0.77094810945894
C        -0.46957225165069   -2.50777843284304    2.07375851783716
C        -2.35464093115447   -1.48155149374339    0.78455221537365
C        -3.69554311354347   -1.79064116235532    0.63910092917383
C        -4.61178070211337   -0.74694131279884    0.67870681117894
C        -4.14368876806681    0.54628371341055    0.84390449356045
C        -2.77950455649745    0.76992217715849    0.97560521168199
N        -1.90093482997556   -0.22390252662092    0.96171686188952
N        -1.23495883716571   -3.55402812155878   -0.00270890993545
C        -1.84847497298902   -3.76803557767118   -1.19603704969195
C        -1.52023550422473   -5.06799834940499   -1.53855021662233
C        -1.89673900872072   -5.79079590812678   -2.74504039688838
C        -2.10919622146494   -5.05733957697061   -3.89415603151654
C        -2.47857072362770   -5.67383438755265   -5.09306153261582
C        -2.64158081230791   -7.03028307221637   -5.14500606156920
C        -2.43937734537650   -7.82112777731741   -3.99552047847069
C        -2.61008597037097   -9.22130623935283   -4.03773573004197
C        -2.42063898347015   -9.98574694193838   -2.92130588467682
C        -2.05426352859655   -9.37822238005855   -1.71155542722339
C        -1.87963689614816   -8.02356089945131   -1.63730698181877
C        -2.05853347984381   -7.20524309072262   -2.77185781086734
N        -0.74334462811480   -5.55696669250254   -0.53273507466230
N        -0.57586473162141   -4.66854336379159    0.35823529320505
H        -1.37591404739551   -0.88635482192403   -1.57674921672111
H         0.17887278669379   -0.05708440262576   -1.81133265922328
H         0.11348780738773   -1.82582118763230   -1.81612594979460
H        -1.04679297096997   -2.14149592923879    2.92813614410982
H         0.51857399133895   -1.90095933252514    1.99339904694399
H        -0.12017522712504   -3.53365137318846    2.22268118758148
H        -4.00887949986128   -2.81279383055669    0.50300354570827
H        -5.66595571472077   -0.94616662573238    0.57481089310245
H        -4.82333760471423    1.38140277578673    0.86920779648198
H        -2.39910433470195    1.77084561373011    1.09136876245069
H        -2.45275447865325   -3.03634613300550   -1.68427282012276
H        -1.96657718172875   -3.98759363175951   -3.88069850541405
H        -2.62933133047892   -5.06982189153322   -5.97459865422484
H        -2.92454057854129   -7.51768593834187   -6.06626629043273
H        -2.89583687716336   -9.67693610333142   -4.97481783056226
H        -2.55303734139888  -11.05656065898165   -2.96228264588191
H        -1.91009676149834   -9.99032269605579   -0.83398536363461
H        -1.58493330762317   -7.56633644161197   -0.70686086602106
Cl        2.12148154667165   -2.15717310749289    0.08660131400136
