67
 energy: -106.420847164286 gnorm: 0.000546269037 xtb: 6.4.1 (afa7bdf)
Ru       -0.45997623211873   -1.32613628381845   -0.34965004062531
C        -0.20610599352898   -1.98315636209362    3.07625929570319
C         0.24082743852321   -1.26902292030739    1.83951845626567
C         1.28394671850928   -1.78798694837530    1.02902279178247
C         1.81349990229301   -1.05003803317842   -0.04649873236985
C         1.32816951771106    0.24843417349466   -0.34239386472350
C         2.00300052912139    1.14653959587306   -1.34747534424753
C         3.04165012363574    1.98546044533790   -0.58710204914981
C         2.66370325577117    0.39542807953700   -2.50211506824320
C         0.25764820975698    0.75282754771660    0.42955636355968
C        -0.28042670797377    0.00361479651711    1.49783998821379
H        -0.09065988802280   -3.05806962413019    2.97187196357254
H        -1.24200352284755   -1.75406384425857    3.31157240711374
H         0.41018932581672   -1.65662205266393    3.91433777097025
H         1.73423947129609   -2.73969372680885    1.28978203139721
H         2.66396245240853   -1.44216172657078   -0.58854490197418
H         1.24783307988145    1.82159013957186   -1.76576345184017
H         3.79547048319758    1.34064597685826   -0.14173914718432
H         3.53282402720097    2.66548410070691   -1.27721685165978
H         2.57298751114892    2.57039136457577    0.20046627794403
H         3.54768172687483   -0.14454574130614   -2.17322134474758
H         1.96347213242140   -0.30505982777984   -2.95304642319097
H         2.97129876207254    1.10477258526508   -3.26588427257612
H        -0.08395885458099    1.76754143407242    0.25751041460140
H        -1.03618635387427    0.45110751685181    2.13594264125857
C        -3.14831118490931  -12.11032461055665   -7.16196415222110
O        -2.59938345608356  -12.46617950598463   -5.90799462312777
C        -2.05978611076888  -11.48700818332695   -5.12822556681574
C        -2.00809407737076  -10.13772001217196   -5.46109277173841
C        -1.43402516155369   -9.23380512974420   -4.58549895494006
C        -0.89142458146252   -9.64491493957372   -3.37267539763949
C        -0.26418127706308   -8.67762470691171   -2.46166773846284
C         0.91936184171741   -8.99124031087561   -1.79314068057461
C         1.52625470570730   -8.06926616469178   -0.95887656125356
C         0.96143901334562   -6.82214214555053   -0.76338045797191
C        -0.22681828818380   -6.51146936679127   -1.41520012082647
N        -0.80339010527233   -5.24489930280826   -1.20578020658044
C        -2.09784284149990   -4.88808184307211   -1.33210468220231
C        -2.12775789791791   -3.54522015530160   -1.00206100732263
C        -3.07317039410783   -2.46509335023365   -0.87811081575312
C        -4.43656360604812   -2.53239129658706   -1.14938673926463
C        -5.21170422032025   -1.39853612898399   -0.99843801633109
C        -4.58210996192826   -0.22895210890321   -0.58278665084761
Br       -5.57366911454236    1.38832680583604   -0.35957669660848
C        -3.21907346920202   -0.22540379871424   -0.32598435115823
N        -2.47757205989311   -1.31958201950485   -0.45838402438387
N        -0.84217201201968   -3.20117141256399   -0.70212519912958
N        -0.06498740047473   -4.21280849629524   -0.82164916863126
C        -0.83645604161168   -7.42431982213764   -2.26465148453134
C        -0.94611299845389  -11.00123123107386   -3.04901163223094
C        -1.52578281843507  -11.90738934260660   -3.90779392698899
H        -3.50446995685111  -13.04212127664874   -7.59539049032397
H        -3.98588436718473  -11.41781946554880   -7.04465569173380
H        -2.38993148181263  -11.67019132705400   -7.81482945696548
H        -2.40531191759668   -9.78250321905678   -6.39816166393924
H        -1.38232316618416   -8.19463051035652   -4.87275838028573
H         1.37617522687096   -9.95518385298796   -1.95226439716566
H         2.44696325096140   -8.32397091930898   -0.45902946969270
H         1.42195623725398   -6.09364032201454   -0.11846827873526
H        -2.87636402888108   -5.56570722431712   -1.60912380037070
H        -4.87272237211088   -3.45911327275391   -1.48195769165426
H        -6.26974695694556   -1.41279004062802   -1.20374261627975
H        -2.72206830419344    0.68607234558571   -0.02083448151323
H        -1.74739767853326   -7.17404113409624   -2.78288249637838
H        -0.55108474355675  -11.34524398721884   -2.10564469786009
H        -1.57958414158340  -12.95634176100137   -3.66287937296004
Cl       -0.68115519598202   -1.04755111852768   -2.70794529646167
