56
 energy: -89.395893936647 gnorm: 0.000255388608 xtb: 6.4.1 (afa7bdf)
Ru       -0.63175074730659   -1.04175129963063   -0.22872948258233
C        -0.06352758022001   -1.82263510244281    3.06947200602273
C         0.17276400752682   -0.93821520843824    1.88797964805656
C         1.28323328851160   -1.16370788775573    1.02265849635054
C         1.55621493886054   -0.29028158090713   -0.03224640702572
C         0.80577469052280    0.91522046439767   -0.20986841558953
C         1.26450772299618    1.99612797758768   -1.15715212438077
C         2.30024560284984    2.85187606240989   -0.41265660001880
C         1.85042144435357    1.45880587206745   -2.46240344932374
C        -0.27710373219905    1.14395525472638    0.64502672614352
C        -0.62758300267194    0.20405562309214    1.65147727945055
H         0.23044288289574   -2.84599785121331    2.85279190488412
H        -1.10600047546600   -1.79995662163497    3.37570947399014
H         0.54321634562953   -1.46704823752649    3.90246438995901
H         1.94224495282508   -2.00311561505150    1.21287388502419
H         2.42493405366819   -0.46551145912994   -0.65544322018591
H         0.40431214527421    2.62852498734964   -1.40247719908276
H         3.15819424286723    2.24774196905769   -0.12737620559083
H         2.64353471698972    3.65318535980211   -1.06074182031316
H         1.86976599712968    3.29094260124950    0.48390568777594
H         2.82681815969019    1.00759517723726   -2.30539403900977
H         1.18858426532810    0.71755130850021   -2.90622101480067
H         1.97114867838449    2.27365294503661   -3.17123966068030
H        -0.81509962223429    2.08332415121254    0.58234831032227
H        -1.43253483614012    0.44137826144257    2.33990269723743
C        -2.33718797298602   -8.41490504359970   -3.98911888754866
C        -1.22074135657556   -7.95418198404996   -3.12622373541595
C         0.13213464572677   -7.98962507990823   -3.29034702715404
C         0.69702636785817   -7.38988794049116   -2.13602964364763
C        -0.35041749249786   -7.03838221471915   -1.34175186079434
C        -0.42366111144842   -6.36977284101939   -0.00793400661883
N        -0.99065404542068   -5.04574989879576   -0.13736567507742
C        -2.24688602424432   -4.73680174141284   -0.49677636748658
C        -2.27484258921628   -3.35263212715789   -0.52017003155862
C        -3.19712893909529   -2.27372504465594   -0.76755894033848
C        -4.52793580050450   -2.40195684562028   -1.15356525801662
C        -5.28371502359731   -1.26338682759988   -1.35901983379566
C        -4.66736110667142   -0.02927219278676   -1.17415264251012
Br       -5.63404881030899    1.59621945042954   -1.44330888839513
C        -3.33649949502398    0.03347827330470   -0.78849329158085
N        -2.61579758999807   -1.06194375893652   -0.57665007810475
N        -1.02010646127080   -2.94706772810312   -0.17188988881297
N        -0.26510235051038   -3.96034396789422    0.05110447733507
O        -1.52215449218999   -7.37515236480870   -1.94234559191306
H        -2.89011983021615   -7.56385263121274   -4.38447024156138
H        -3.02711517704859   -9.03051593016039   -3.41559909263694
H        -1.94319856512687   -8.99312060631928   -4.81824947766975
H         0.66344706789765   -8.39144752431368   -4.12790326593540
H         1.73781152514463   -7.25258818035733   -1.93027219320157
H        -1.05439622280004   -6.95358253397289    0.66820112478168
H         0.57827273826295   -6.26288735210631    0.40475226052164
H        -2.98971592072009   -5.47694235873448   -0.70947209219363
H        -4.95343758252544   -3.38104731074417   -1.29553840115209
H        -6.31695770955563   -1.32444079017570   -1.65990751746041
H        -2.84643483374964    0.98990702189334   -0.65984533331706
Cl       -0.53650498164756   -1.33370607750223   -2.59433646536026
