59
 energy: -91.290453344264 gnorm: 0.000168461826 xtb: 6.4.1 (afa7bdf)
Ru       -1.32796649955553   -1.03211219505227   -0.17603366446869
C        -1.57774419974912   -0.30096805621151    3.20035510990158
C        -0.81038373006116   -0.24996523767119    1.91600715078246
C         0.10860632548102   -1.26396526973122    1.56695668550241
C         0.93856521784725   -1.13593191084738    0.42097139280055
C         0.80094728173195   -0.04596444480615   -0.44176786432795
C         1.68946383038784    0.13473601483352   -1.64672161353013
C         3.02723087967769    0.72929664521415   -1.18872834313975
C         1.90151931870380   -1.17128190175089   -2.41324916207100
C        -0.12975578013522    0.98168143528277   -0.08915438783874
C        -0.88255175916105    0.90391014931341    1.07953717893927
H        -1.60724322500922   -1.31027760160024    3.60085408375719
H        -2.59290902926759    0.06536500294910    3.06693862385976
H        -1.08639080449032    0.33974555227875    3.93267522955259
H         0.27160776117087   -2.09483068322163    2.24554238923486
H         1.69438648597406   -1.88626208661611    0.23007976261272
H         1.20455107488837    0.84830045116343   -2.32266242489741
H         3.53724714573265    0.04514934023386   -0.51474551052069
H         3.66494245683730    0.90419760603755   -2.05088257574372
H         2.87558468442078    1.67579938246127   -0.67467098933863
H         2.53520096595561   -1.85904118598625   -1.85996871699269
H         0.94293128251520   -1.65060189626310   -2.60837628031869
H         2.38133139280313   -0.96272711509366   -3.36604929248648
H        -0.17384786172862    1.87453281496288   -0.70430905718840
H        -1.50360745536725    1.73866211250400    1.38546932358631
C        -5.84309550155631    1.70990215179093   -0.65250282767273
C        -5.27762462312958    0.37548723022967   -0.30886243583241
C        -6.09818667340308   -0.70831548692932   -0.00300483477200
C        -5.51922016101680   -1.91931161939213    0.32615339184181
C        -4.13602819726726   -2.03946510609885    0.34976616057238
C        -3.49267458091007   -3.33689572316943    0.78135134989257
N        -2.47030681938194   -3.76560851769681   -0.13940937639721
C        -2.21345384852573   -4.98204497334464   -0.65633065572021
C        -1.01529802125271   -4.83885103284804   -1.34361234560112
C        -0.22965802366582   -5.81147064373878   -2.08373725248894
C        -0.62871388782879   -7.14479212894618   -2.17166612790488
C         0.13614795077082   -8.05773900233291   -2.87277904570136
C         1.29836361056356   -7.62013031457570   -3.47957696892187
F         2.05600219534332   -8.51971436195186   -4.17083690205977
C         1.72113947346454   -6.30557251435047   -3.41159716466731
C         0.94855317110210   -5.40223297359053   -2.70874064638315
N        -0.62401138159017   -3.55007795038444   -1.20043199795140
N        -1.49243816438941   -2.94057260835045   -0.49137571847488
N        -3.34272367213390   -1.00140274800758    0.04991701741645
C        -3.90625432345853    0.16399181492790   -0.27326210989910
H        -5.08255126379628    2.36504906697997   -1.06547511027425
H        -6.64864424415331    1.60390996639092   -1.37449495873345
H        -6.25899316009242    2.17562102139161    0.23934040238424
H        -7.17056265991816   -0.60137662088809   -0.02960827334279
H        -6.13432523981886   -2.77036439783947    0.56681754320885
H        -4.24445050009234   -4.12183296238801    0.86050294508613
H        -3.02552678159901   -3.18712625244115    1.76615484713171
H        -2.85655882297140   -5.82256800405142   -0.51023327516638
H        -1.53538633191341   -7.47746546875531   -1.69486629995812
H        -0.15290993240433   -9.09278962004637   -2.95397082608134
H         2.63391462911571   -6.00941558639798   -3.90197698288716
H         1.24577714695691   -4.36870807494023   -2.63955435538034
H        -3.23029234528917    0.96741138466605   -0.54405931957958
Cl       -1.85967177527453   -0.80278286492040   -2.50044489338877
