59
 energy: -90.640824498613 gnorm: 0.000478202064 xtb: 6.4.1 (afa7bdf)
Ru       -0.65365420203882   -0.92973083043812   -0.24675365554604
C        -0.30496722818119   -1.57994433317598    3.16989632579490
C         0.08288648750612   -0.84157575912299    1.92734098596412
C         1.13891070990252   -1.30606123429491    1.09978574759862
C         1.61035124419176   -0.54286809642031    0.01648676132347
C         1.05862140159819    0.73327855243364   -0.26657632745565
C         1.67908542096031    1.66552616392993   -1.27574415060643
C         2.70464445082988    2.53166554733761   -0.52818175914557
C         2.34015888266724    0.95031490173754   -2.45297019240893
C        -0.02081862027960    1.18297584915776    0.52368475289298
C        -0.50805958001507    0.40274286184110    1.59586771693835
H        -0.17830210707349   -2.65162347982245    3.04498340071667
H        -1.33387255310127   -1.36977551765071    3.44929981879186
H         0.34039598900139   -1.25698090257194    3.98723704182407
H         1.64002343591869   -2.23444534393031    1.35180313668024
H         2.46939987038527   -0.89109209960420   -0.54186910059112
H         0.89194135890201    2.31824014902198   -1.66965585618808
H         3.48955452724348    1.90862687082757   -0.10608996484991
H         3.15724035712098    3.23540440483049   -1.22080009808926
H         2.23318419035831    3.09164523968196    0.27578299316306
H         3.25198627168560    0.44230546345222   -2.15033395544072
H         1.65728649756293    0.22678490760543   -2.89372682145475
H         2.60195987155914    1.67731201616186   -3.21728744734366
H        -0.41292279736510    2.18105054257479    0.36235907790195
H        -1.27625142957536    0.81057756352977    2.24565305994517
C         3.00883591385724   -7.77268909660813   -0.16991955141415
C         1.66359908634962   -7.54015437671510   -0.78043262628219
C         1.02274420528737   -8.54969292343630   -1.48993515832499
C        -0.23424000584719   -8.36347263320901   -2.05115564592419
C        -0.88853999546108   -9.45089367594754   -2.84335023944446
C        -0.86852955213448   -7.13801643203422   -1.89322517202603
C        -0.23899497974200   -6.12746955985970   -1.17855397232477
N        -0.86266977326827   -4.87863628203542   -1.00382205081328
C        -2.17066512266491   -4.57217196775593   -1.12259163399911
C        -2.24648183646873   -3.22195423765593   -0.83092966876732
C        -3.22923362596321   -2.17400947371557   -0.72381833997538
C        -4.59214712059910   -2.29752245902986   -0.97738972303723
C        -5.40656332148937   -1.18923811085456   -0.84501193280416
C        -4.81546877244695    0.01245015964808   -0.46583198309773
Br       -5.86382297274241    1.59683706925961   -0.26811229657840
C        -3.45084626486207    0.07214602522690   -0.22566426079904
N        -2.67149014994431   -0.99744547708643   -0.33949872789231
N        -0.97174480339132   -2.82288455964127   -0.55829127614181
N        -0.15903461025361   -3.80834857950694   -0.66040501980623
C         1.02113444132716   -6.32080594822266   -0.62589014864294
H         3.60214430026490   -8.44292865226715   -0.78616246175556
H         2.89330866083592   -8.23519616812417    0.80974285597782
H         3.54568566885114   -6.83723571585188   -0.04314509772358
H         1.51734277032109   -9.50170289825824   -1.61263832561683
H        -0.65982513031937   -9.32344086270241   -3.90112911370648
H        -0.52452030932115  -10.42744982885032   -2.53692499931785
H        -1.96873773200613   -9.42290729368192   -2.72814673047660
H        -1.83179801273965   -6.98130311069988   -2.34977583811209
H        -2.92905022347872   -5.28163469902663   -1.37297350573754
H        -4.99740199748180   -3.24746949573406   -1.28244393661750
H        -6.46563019623491   -1.24722527788771   -1.03703164947179
H        -2.98399361979793    1.00839903816100    0.05116586259230
H         1.48722100936170   -5.51770570440698   -0.08040848490070
Cl       -0.89986537756271   -0.70939622857953   -2.60983863744945
