61
 energy: -93.257024772653 gnorm: 0.000154809147 xtb: 6.4.1 (afa7bdf)
Ru       -1.02560629323455   -0.98979322300278    0.03849290614525
C        -0.96741492628159   -0.29691139784196    3.42906509138818
C        -0.28122446894104   -0.31283051214220    2.09917798728388
C         0.48342488502752   -1.42444081524536    1.67931918967693
C         1.25156575292891   -1.37162825782253    0.48523677400263
C         1.19327406876355   -0.25661544444141   -0.35404892780513
C         2.02468401193663   -0.16194549861251   -1.60891465792797
C         3.46928022509776    0.18079960518123   -1.22445284612078
C         1.96622866521585   -1.44646501894719   -2.43666438248580
C         0.41397709423836    0.86541748656070    0.06857970677955
C        -0.26557986099350    0.85763959576918    1.28382554312237
H        -1.11117532306137   -1.30374511787480    3.81039170480162
H        -1.92812736444785    0.20923487293463    3.37081420242922
H        -0.34713405878055    0.24897148068246    4.14017151781008
H         0.58955100875362   -2.28009130628234    2.33798194452855
H         1.90007057608029   -2.20180092795648    0.23713164490154
H         1.62501096501085    0.65373142627911   -2.22214521206562
H         3.90296741206075   -0.61371518047366   -0.62202806008274
H         4.06922922471333    0.29860102935529   -2.12276141209513
H         3.51022317891238    1.10894820587338   -0.65877596524724
H         2.49516918457064   -2.25945520303109   -1.94683489304770
H         0.92996487856458   -1.74303417615787   -2.59404965610873
H         2.42721975106827   -1.27984481966948   -3.40689292439259
H         0.43649711743971    1.76827171827197   -0.53308244636651
H        -0.75668845015060    1.75639511671392    1.64011340261279
C         0.95429312838976  -10.00804233431916   -4.70158699521355
C         1.45229964412070   -8.59138535699689   -4.66690206901576
O         2.42353265041874   -8.24243202090729   -5.32309287515888
C         0.73008591642157   -7.62865685575830   -3.80479183961947
C        -0.42653254886312   -7.95904035676300   -3.09564206290472
C        -1.05203019600448   -7.01936224465225   -2.30259726513707
C        -0.53722816444420   -5.72650699323869   -2.19601361143460
C        -1.16891813418011   -4.73171271487467   -1.34873127315523
C        -2.31455724997275   -4.80855502943725   -0.56664650745190
N        -2.41278506428076   -3.60741650511642    0.03269918372583
C        -3.30795793336763   -3.14817798657656    1.06412457320814
C        -3.86101535480120   -1.77267201571565    0.76883353346795
C        -5.22284528440476   -1.53460199185124    0.88958469870429
C        -5.71649747833716   -0.25591893503717    0.68859856168546
C        -4.81914050416807    0.75082512039307    0.36777743037487
C        -3.47830409366574    0.43643259923046    0.25107515928949
N        -2.99904004383774   -0.79370763654272    0.45243115286335
N        -1.39395549344285   -2.85233549213508   -0.36171641221293
N        -0.64932015196171   -3.49279660086380   -1.17507330748917
C         0.61573253981679   -5.39043616950090   -2.90745725579906
C         1.23623050485845   -6.32975366065812   -3.70016310830576
H         1.60422081531162  -10.60005948660999   -5.34077634532004
H        -0.05796647130324  -10.03416137552520   -5.09748629135132
H         0.94960257307947  -10.42732199887060   -3.69886377562024
H        -0.84353989071880   -8.95007910458625   -3.16189119498006
H        -1.94300194461304   -7.29386281799301   -1.76204710449422
H        -3.01882970244939   -5.59648190377791   -0.40876855170551
H        -4.12081231342384   -3.86682692735745    1.16759075869692
H        -2.74723210105763   -3.10344860187605    2.00988820432929
H        -5.88750558371018   -2.34394826492591    1.14212653441885
H        -6.77079147404298   -0.05203046209144    0.77590016924274
H        -5.14648648294389    1.76275891972040    0.19954768905563
H        -2.76010301254856    1.19555511504886   -0.03578225215210
H         1.00714993958123   -4.38912627956324   -2.82962919442633
H         2.12916750018767   -6.08573952047224   -4.25658990694465
Cl       -1.73193379402531   -0.56582874798575   -2.21014668080982
