56
 energy: -83.884613298352 gnorm: 0.000157446278 xtb: 6.4.1 (afa7bdf)
Ru       -1.10580674835002   -0.96078831391734   -0.27592918220952
C        -1.19427572043842   -0.26921653590680    3.11524114425794
C        -0.48897609858788   -0.20134992989415    1.79651428548513
C         0.41350347004982   -1.21001632070413    1.39225802054551
C         1.18787314998163   -1.06658739826882    0.20977038665632
C         1.00790434338682    0.03341294377520   -0.63233923650161
C         1.83851036973110    0.22986677276658   -1.87553436227044
C         3.19652256063599    0.81927641938824   -1.47384085797784
C         2.01427886647801   -1.06630875389675   -2.66748152484945
C         0.09451739213576    1.05565621328630   -0.22320453876503
C        -0.60128572489623    0.96304851501708    0.97903478826308
H        -1.20506411895056   -1.28360692928684    3.50365052646118
H        -2.21436818409390    0.09917615083761    3.03572942783193
H        -0.66794957203853    0.36191166362131    3.83136682138588
H         0.60985620568091   -2.04838516869492    2.05254095519396
H         1.93452116490159   -1.81335782284246   -0.02632034148933
H         1.32209786915525    0.95149955672821   -2.51881990985221
H         3.73657996948202    0.12783798817790   -0.83145069509859
H         3.79355774256835    1.00283746168869   -2.36288843828795
H         3.06951107580169    1.76040940727787   -0.94352008012515
H         2.67500640729735   -1.76014494255992   -2.15479391846321
H         1.04823172786639   -1.54601234901487   -2.82100010057918
H         2.44615617913222   -0.84571340840118   -3.64030645341450
H         0.02014832912558    1.95567612450107   -0.82476088369080
H        -1.20703220474514    1.79357184042376    1.32456771329398
C         1.38757693605035   -7.53389977034589   -3.79821764373617
C         1.78174659739427   -6.20650737135772   -3.73395469675838
C         1.05174926437508   -5.30160488344448   -2.98812156139858
C        -0.08522166932073   -5.71700375218740   -2.29589489547061
C        -0.83452101660926   -4.75378355994769   -1.50781445367655
C        -1.99374290282401   -4.91080548672233   -0.75909063199630
N        -2.23018032671685   -3.70076170348007   -0.21653145849802
C        -3.20465690473408   -3.28747432011682    0.76112795001389
C        -3.87980495172154   -1.99143286751925    0.37472121541649
C        -5.26311851017860   -1.88995372222428    0.41723997590430
C        -5.87145286685739   -0.67937823913378    0.12782790489655
C        -5.06403100526687    0.39939275531990   -0.19775996757955
C        -3.69406227491291    0.22026033179821   -0.23267315221492
N        -3.10507758405170   -0.94440160157887    0.05079599583023
N        -1.27687502154488   -2.86698204265090   -0.61121519268368
N        -0.44413151729459   -3.46390613280850   -1.37230120559121
C        -0.47752280109416   -7.05302563459670   -2.36504856673782
C         0.25774098883173   -7.95272933756846   -3.11365854200806
H         1.95908450506574   -8.24049407878990   -4.38083376757590
H         2.66067567287336   -5.87895406138738   -4.26822091635798
H         1.34590727388861   -4.26549604637197   -2.93441520620652
H        -2.62300626138181   -5.75694516901304   -0.58786265444215
H        -2.68712232645761   -3.13985138632350    1.72091040364889
H        -3.94435077736133   -4.07974543812960    0.87446529633138
H        -5.85501231529343   -2.75170049430577    0.67744973534768
H        -6.94410002154758   -0.58166691157533    0.15213599511916
H        -5.48200729370240    1.36365920872864   -0.43210322807348
H        -3.04122954293710    1.03611111482974   -0.52007433279037
H        -1.35379614735056   -7.39124304073175   -1.83576044095311
H        -0.04952235968553   -8.98633063499339   -3.16437032523748
Cl       -1.75801929093478   -0.69666990742182   -2.56605017832672
