56
 energy: -91.511845598388 gnorm: 0.000125953615 xtb: 6.4.1 (afa7bdf)
Ru       -1.07774696107031   -0.82050744207038   -0.26026421266847
C        -1.12937401706604   -0.07522703170082    3.13463921587173
C        -0.42766540363673   -0.05054883666231    1.81380972419019
C         0.43703621704670   -1.09568912305745    1.42136708658445
C         1.20478984995724   -0.99736290873870    0.23022917382344
C         1.06427867725948    0.10115524245146   -0.62436718014239
C         1.90193310138089    0.25234388353266   -1.86907790250200
C         3.28852853332834    0.77219645353963   -1.46815651823888
C         2.01095267560384   -1.05385751453340   -2.65659578380915
C         0.19282308824574    1.16182305251208   -0.22280815534988
C        -0.50471598107877    1.10552678807571    0.98047320374760
H        -1.17958339443304   -1.08327764013536    3.53551462978064
H        -2.13356393018936    0.33458118914684    3.05646749314957
H        -0.57377346407618    0.54229828932840    3.84061245673932
H         0.60873838659696   -1.92945154689124    2.09387786210220
H         1.92299656308848   -1.77341790508880   -0.00082571183169
H         1.42331466103890    0.99824955177959   -2.51339894157858
H         3.79423810033419    0.05415546479111   -0.82732883990476
H         3.89256126405603    0.92620236536524   -2.35799655422567
H         3.21049119437801    1.71826787540908   -0.93730274805184
H         2.63542389177414   -1.77753747716566   -2.14036037281583
H         1.02122525270145   -1.48234559345371   -2.80896506206316
H         2.45480765040228   -0.85813128300818   -3.62920640204935
H         0.15042465153550    2.05804650447790   -0.83278982947160
H        -1.07771534721626    1.96151605214891    1.31947235349825
Cl        2.25192186260315   -8.46926864455928   -4.85330643808870
C         1.33631875547698   -7.33847795023234   -3.88975419494623
C         1.78515713784518   -6.03380035362667   -3.75726674593586
C         1.05508312461104   -5.14344635622428   -2.99524713722427
C        -0.12101116369898   -5.54705180697771   -2.36350792132855
C        -0.86525783298841   -4.59077472767998   -1.56297301609962
C        -2.04495336681570   -4.74014138347562   -0.84432505560887
N        -2.26402085383424   -3.54004263731616   -0.27362612248487
C        -3.25468035760070   -3.13006926641954    0.68882179330727
C        -3.88467033835028   -1.80686234895108    0.32056293135733
C        -5.26598136258344   -1.68423769415132    0.31000373960457
C        -5.83355455244757   -0.44665281254059    0.03617582493951
Br       -7.73386536153596   -0.23755873624653    0.00424603410199
C        -4.99724088733014    0.63401232520183   -0.21323774173819
C        -3.63345977342259    0.42115083049536   -0.19688519882081
N        -3.07417019171135   -0.76530586864611    0.06395227348284
N        -1.28173008211871   -2.71875032680074   -0.62459167064799
N        -0.44822814485041   -3.31491875202364   -1.38336178550547
C        -0.55567078582209   -6.86373724358964   -2.50858600236890
C         0.17021935091655   -7.75934567769794   -3.27052183635979
H         2.69365996673135   -5.72392912828132   -4.24697341638968
H         1.38496924586053   -4.12341073227257   -2.88553618239186
H        -2.69645776108803   -5.57598338258902   -0.70855115139594
H        -2.76222618331637   -3.01847922692057    1.66676903482383
H        -4.01665549553027   -3.90587788383511    0.76167970753370
H        -5.89128724747428   -2.53870572046880    0.51287749170532
H        -5.39236068348475    1.61283303144435   -0.42793795032371
H        -2.96142817128302    1.23970739892438   -0.42444701624638
H        -1.46114067313103   -7.19768833851206   -2.03001301559979
H        -0.16251183340714   -8.77786284954262   -3.38593402997491
Cl       -1.74647160017431   -0.50974014656183   -2.53552118615832
