62
 energy: -90.242323470518 gnorm: 0.000489262998 xtb: 6.4.1 (afa7bdf)
Ru       -0.86026646174496   -0.67803404686375   -0.23521047841007
C        -0.74997962985097   -1.38476910266150    3.17325750603974
C        -0.17923488990319   -0.70873426077953    1.96363872580532
C         0.78822360187141   -1.34934526961364    1.15164985077548
C         1.43268116332802   -0.67132489951719    0.09685250239342
C         1.12362917800686    0.67613063340889   -0.18152131349008
C         1.89752155503951    1.48558333880843   -1.19212833896027
C         3.07695501976079    2.14160653079221   -0.45906908488114
C         2.39184303347049    0.66673809426687   -2.38318869427832
C         0.16523719786435    1.32902973266423    0.63446151303805
C        -0.47522581587911    0.64901636622664    1.68067828695149
H        -0.75134492989336   -2.46490242186979    3.05494308659001
H        -1.76394324143247   -1.04612921945977    3.36982058050507
H        -0.13794936487734   -1.13929305304817    4.04126979962928
H         1.09799032166577   -2.36051655484742    1.39404181660200
H         2.22099360021791   -1.17066505626168   -0.44958258801878
H         1.24063565445666    2.27581207626976   -1.57279374334540
H         3.74023976934234    1.38112307067512   -0.05349778052617
H         3.64127000114570    2.75640655810141   -1.15455563456167
H         2.72903985976756    2.77110751234867    0.35614872089822
H         3.19247568458361   -0.01093852439770   -2.09824533942084
H         1.57450955463911    0.09195160238869   -2.81529098037680
H         2.77699252405162    1.33492059151996   -3.14914058401245
H        -0.00935898466449    2.38909012934914    0.49283140978104
H        -1.13719821752976    1.18873469824827    2.34838278057460
C        -1.48707067398340   -9.19373114617122   -2.79980859765573
C        -0.72547349551270   -8.10309258738724   -2.11473788309105
C         0.59334511244870   -8.29701277935482   -1.72409836619976
C         1.33282023664335   -7.28732659910015   -1.11884746659671
C         2.74602092938191   -7.53016112113420   -0.69309387104781
C         0.72774390210639   -6.06011751799853   -0.89240645342375
C        -0.59330443194479   -5.85942126238236   -1.27190920013687
N        -1.18340027473988   -4.60775515694417   -1.02097036165842
C        -2.49588486952251   -4.31432450417996   -0.90345336621206
C        -2.53309206109347   -2.96028338923761   -0.63344617705364
C        -3.50765296841509   -1.91880889370982   -0.41143449604098
C        -4.88122092724010   -2.10921887736253   -0.42300643407740
C        -5.70034103318166   -1.00448722546268   -0.25687561447633
C        -5.11248656588026    0.24129167818840   -0.14038460494051
C        -3.72404018435886    0.37105897003553   -0.14723715922668
C        -3.09785216666552    1.72164997599291   -0.10620704103081
N        -2.93602944838103   -0.70448237976916   -0.22490806813152
N        -1.24042123996707   -2.54181221841550   -0.61177614650363
N        -0.44280397506209   -3.52176863442748   -0.83632779951459
C        -1.32121290631281   -6.86956048316837   -1.88652179664040
H        -1.12917113431600  -10.17087700683204   -2.48742394642133
H        -1.35071515368908   -9.11566776959387   -3.87816903283053
H        -2.55056990571876   -9.12113087547525   -2.58930463305842
H         1.05809904636938   -9.25564391648236   -1.90066443096326
H         3.29138303844966   -6.59552177266850   -0.60125450072540
H         2.75880356148734   -8.03053002688595    0.27464039877159
H         3.25793315396003   -8.17204083086924   -1.40536160471183
H         1.27018012272226   -5.25595204184469   -0.42401525696038
H        -3.27513961456791   -5.03962139907025   -0.98943075279529
H        -5.28260398675653   -3.09737444699872   -0.56686738684795
H        -6.77241741595959   -1.11176398818225   -0.24645672738918
H        -5.71692028408535    1.12887304335374   -0.05328362265189
H        -2.86222011704805    2.01070168152726    0.91549866293331
H        -2.18590636328199    1.71727580985814   -0.70644246931617
H        -3.78244382144247    2.45899385398489   -0.51438557249718
H        -2.33532028684382   -6.70359126695801   -2.21166374171419
Cl       -1.17063998101757   -0.25658742063604   -2.56816549846793
