62
 energy: -93.810398831379 gnorm: 0.000233890230 xtb: 6.4.1 (afa7bdf)
Ru       -0.58094394780574   -0.97415283080566   -0.42502760788147
C         0.06221009899973   -1.99562382925750    2.81022926607584
C         0.31389088576030   -1.06912231169424    1.66312583663117
C         1.36098194550692   -1.32524012274555    0.73361480242933
C         1.66568220612730   -0.41141789888023   -0.28089350151519
C         1.00334593671858    0.85100858926009   -0.35789894878051
C         1.49859275082417    1.94758253170324   -1.26700204535028
C         2.57735398519498    2.72676762757434   -0.49908194651262
C         2.05144102555545    1.44083882571836   -2.59854582463617
C        -0.03101138501528    1.10836382803834    0.55262666395176
C        -0.40314708684033    0.14368707805301    1.52488374445031
H         0.27299629353693   -3.02527695026070    2.53376766351463
H        -0.96337456338085   -1.91777238596113    3.16108796780273
H         0.72379976596005   -1.72632981579263    3.63378916956897
H         1.95912522163711   -2.22315305281076    0.84083459841454
H         2.49672195324280   -0.61481899489083   -0.94442862606010
H         0.66378177488467    2.62494197639810   -1.47790147345401
H         3.41007674244945    2.07410353335163   -0.24806809493863
H         2.94950638210540    3.53721022867637   -1.11918363194428
H         2.17552442891841    3.14846542612694    0.41877329731806
H         3.00491154811092    0.93549499673125   -2.46836259767952
H         1.35020152402788    0.75598947188119   -3.07127281180787
H         2.20930967325272    2.28051422030286   -3.27014223473891
H        -0.50016989523426    2.08589200524919    0.56078303976373
H        -1.15969221472257    0.39825646638878    2.26090095403312
C         1.50087828177788  -10.06744715436693   -1.57984544486274
C         0.88492461229476   -8.71157141902567   -1.44789051538588
C         1.03319788196742   -7.98537465124969   -0.27165841093444
C         0.46442557245991   -6.73350296080498   -0.11476840246147
C         0.63665151774046   -5.96553127625125    1.15819443200897
C        -0.28241213907403   -6.21159698751266   -1.17650256099988
N        -0.86930065096913   -4.93251526455850   -1.02826649582620
C        -2.16871875541451   -4.61110148943864   -1.16419789308017
C        -2.22376324907825   -3.24930580432741   -0.92304209411159
C        -3.18253669804208   -2.17591347231322   -0.86208765346745
C        -4.54854036939455   -2.27864213820014   -1.10730469914066
C        -5.33748837590365   -1.14779199688296   -1.01710657088843
C        -4.71887197764991    0.05437940103436   -0.68657016211211
Br       -5.73207258785693    1.66800079707690   -0.54433020183725
C        -3.35215133503874    0.09328371392713   -0.45392001679131
N        -2.59705920375002   -0.99693019624494   -0.52851939715959
N        -0.94222025760067   -2.86554642221638   -0.66122399120383
N        -0.14672371880662   -3.86699581603780   -0.72487299272708
C        -0.44556969850528   -6.90865233453465   -2.37501691158433
C        -1.21653021894400   -6.34800106054829   -3.53079523743286
C         0.14725350957492   -8.15905278163865   -2.48428837067626
H         0.88119387307800  -10.80541131435511   -1.07134588458761
H         2.48670576322042  -10.08948625510643   -1.12193849519212
H         1.58758152252129  -10.35828785984835   -2.62301836159052
H         1.60805608831307   -8.40799241987896    0.53815521571806
H         1.11068246546706   -6.58822128818613    1.91043992008630
H         1.26294880842571   -5.09426370343263    0.98003424365333
H        -0.32485046708907   -5.62783210112084    1.54056153091657
H        -2.92669250679857   -5.32867011558920   -1.39400551411810
H        -4.97605079751168   -3.23103408445967   -1.37192277289309
H        -6.39837940999246   -1.18960294158290   -1.20298467728766
H        -2.86298674046733    1.02805052901743   -0.21252177880018
H        -1.16549476931396   -5.26231394745243   -3.56919326435222
H        -0.81941142749751   -6.74177227915468   -4.46244647009312
H        -2.26262531521175   -6.64513418399388   -3.47146759060307
H         0.03408652464568   -8.70908492988035   -3.40622877961817
Cl       -0.78282080135548   -0.86423740319589   -2.80095238925990
