59
 energy: -87.400925904287 gnorm: 0.000333353232 xtb: 6.4.1 (afa7bdf)
Ru       -0.50873383737798   -0.95717411009970   -0.60976130733039
C        -0.12990033041729   -1.59756680740294    2.80139775238489
C         0.23142606720993   -0.84689601066481    1.55857950295370
C         1.30577461433239   -1.27220589415182    0.73210101558876
C         1.74087123488711   -0.49728172480224   -0.35537152909097
C         1.14727206590734    0.76381463369455   -0.63518524072809
C         1.73449350080297    1.71802404924284   -1.64427802945414
C         2.70581641967637    2.63988931643442   -0.89094845961630
C         2.44617559716933    1.02862927571505   -2.80714482470873
C         0.05893609457515    1.17597310774624    0.15778112084891
C        -0.40634542972301    0.37295761220536    1.22561625259773
H         0.06270727375952   -2.66047948482308    2.68678272396539
H        -1.17333576235946   -1.44632924093126    3.06462435432087
H         0.48315612919287   -1.23047216576441    3.62494802514896
H         1.84112658099894   -2.18096325246543    0.98434038123393
H         2.60716630343408   -0.81713047158559   -0.91970420831401
H         0.92144263040465    2.32806015884680   -2.05358735932110
H         3.51285956388850    2.05932408649612   -0.45043121365735
H         3.13528680178624    3.35757705156764   -1.58404654024844
H         2.19591796148997    3.18449658817583   -0.10025981819480
H         3.38046174243554    0.57348416783282   -2.48901849598475
H         1.80854593494381    0.26551760533934   -3.24890288449333
H         2.67759203091348    1.76159129545378   -3.57551105638657
H        -0.36530522179407    2.16163375881597    0.00124561745745
H        -1.18968786463657    0.75228152835018    1.87470393775966
Br       -5.69983267347005    1.59748379848776   -0.83402203710878
C        -4.65692709653826    0.00137485043035   -0.96105172134389
C        -5.24548764295589   -1.20651727782928   -1.32378804857092
C        -4.43490087935277   -2.32264487192922   -1.40361173114319
C        -3.07820214786257   -2.20004326567435   -1.11868227754911
C        -2.10006347640128   -3.25645498972503   -1.17382131264967
C        -2.02287921851160   -4.61036638961462   -1.45359412238966
N        -0.72646378371839   -4.92096952562428   -1.29310517948295
C        -0.08604909501740   -6.20346840293115   -1.47542156412664
C        -0.72414534767929   -7.26854134080728   -0.58131197047378
C         0.01490103049519   -8.59197231156239   -0.76644508914383
C        -0.02668172016907   -9.02761242543666   -2.22853889240063
C         0.58402960288981   -7.95307040775679   -3.12398619168026
C        -0.15062036718564   -6.62670867864975   -2.94558269710459
N        -0.02535222024055   -3.86146195561589   -0.93995407768700
N        -0.83095905746564   -2.86522492132762   -0.86601970522505
N        -2.52269749620045   -1.01648201389136   -0.75323166088416
C        -3.29899283149014    0.05971191965701   -0.68663072515332
H        -6.29927662033562   -1.26318511673190   -1.54281173573800
H        -4.83851804584513   -3.27852601172565   -1.69193063397007
H        -2.77155022175243   -5.31560935192127   -1.74329351748470
H         0.95791070319516   -6.05401717806032   -1.18626096313996
H        -1.77091370647668   -7.40463888944982   -0.85435354869029
H        -0.67574319550880   -6.95804179020846    0.46270554140009
H        -0.44359234833803   -9.35634297659447   -0.13843701716121
H         1.05367712746159   -8.47967481055321   -0.45146561550150
H        -1.06129985801171   -9.20689401296270   -2.52790797600077
H         0.51961680823815   -9.96360943919312   -2.35112519424113
H         0.52793338562466   -8.26200065227716   -4.16833120436549
H         1.63791576339488   -7.82449308863025   -2.87111236947155
H        -1.19108805618841   -6.74696179028512   -3.25040398311246
H         0.30402845372877   -5.85918868570325   -3.57330808751830
H        -2.83478806784380    1.00002269412282   -0.41978898854655
Cl       -0.68251280197177   -0.83906976324176   -2.98610241908285
