61
 energy: -97.479420534818 gnorm: 0.000306155796 xtb: 6.4.1 (afa7bdf)
Ru       -1.10816785780674   -1.09353214590632   -0.15400607395869
C        -0.92340947432909   -0.03908775676263    3.14384533506027
C        -0.29367262638701   -0.18054079897637    1.79432797800779
C         0.47993280762264   -1.31464230776903    1.46036758646736
C         1.18809920149692   -1.37557072584757    0.23016722390378
C         1.06761737021122   -0.35407573879939   -0.71747640071850
C         1.84322760874979   -0.37334481444368   -2.01077617126518
C         3.28242858137477    0.07674228948978   -1.72863985628100
C         1.81843449872222   -1.74779174492659   -2.68042900765895
C         0.28792096547989    0.79487438609708   -0.37515155524865
C        -0.34057955710121    0.89872654256314    0.86208914490966
H        -1.04423401749942   -1.00457142900654    3.62628166247635
H        -1.88841194763544    0.45794902399033    3.07966386206892
H        -0.27663652985481    0.57401410779356    3.77194997954824
H         0.63637342072844   -2.09251351206991    2.20029227768315
H         1.84441575725173   -2.21496025812076    0.03964936267717
H         1.38135063017458    0.34655012806816   -2.69579607682053
H         3.77424928707616   -0.61882419486562   -1.05308967339107
H         3.84395230379487    0.11124750776539   -2.65821468811834
H         3.29857556920364    1.06762786857898   -1.28020491638689
H         2.41558544233551   -2.46771635051745   -2.12803424366893
H         0.79412189037494   -2.11185880014015   -2.74859400275577
H         2.22499685376432   -1.67185372466426   -3.68544846675297
H         0.26609335123560    1.63181133014927   -1.06535203428149
H        -0.83635909904634    1.82045004650358    1.14597012765040
C         2.57406959334662   -8.86275836747319   -4.88979412945130
C         1.20985310789945   -9.09062713683069   -4.30442599183762
O         0.61716924681692  -10.14852034296898   -4.46223013911072
C         0.60698580126501   -7.98930144315021   -3.51971603164756
C        -0.59986254417373   -8.23548591708409   -2.85931515036639
C        -1.21018138970924   -7.25774054072839   -2.10404137013943
C        -0.62457919857721   -5.99566435463541   -1.99782622394639
C        -1.23281738986902   -4.94471269695371   -1.20271644225049
C        -2.34852869381146   -4.96846863052727   -0.37464192195074
N        -2.43620697898989   -3.72508656725682    0.13300975918176
C        -3.29820260872781   -3.18981866487980    1.15648252090960
C        -3.89422839704695   -1.85989861959658    0.75714687920635
C        -5.25824474053221   -1.64117314034727    0.90020226666246
C        -5.80305243226598   -0.40512218108792    0.59414468965077
C        -4.92318941329316    0.56478479764229    0.14533602827873
F        -5.36655274660520    1.79338680621035   -0.17164733999767
C        -3.57284805815033    0.29513558842186    0.01244951798132
N        -3.06231750054607   -0.89917085081283    0.31871419461352
N        -1.44036141049237   -2.99606043765141   -0.35775919424436
N        -0.71903289114128   -3.69298457917061   -1.14434544298686
C         0.57502776107665   -5.74076157698469   -2.66461571184436
C         1.18676173038294   -6.72320272141367   -3.41348978059668
H         2.53190283361250   -8.05702055805443   -5.61861208539253
H         3.27673180381494   -8.59020860775795   -4.10690333130729
H         2.90945778147646   -9.77190226229460   -5.38204114881277
H        -1.03891686556419   -9.21761150874734   -2.95515473614184
H        -2.13991194833728   -7.47458000012195   -1.60427513183208
H        -3.03305505910358   -5.75013570685343   -0.12504685828937
H        -2.69942524264417   -3.04532785445112    2.06845443450849
H        -4.08862550518266   -3.91158901936431    1.36206323123425
H        -5.89592861855058   -2.43440588349336    1.25361976012508
H        -6.85559027346229   -0.19754456665664    0.68959138870319
H        -2.90746096420315    1.05660959331171   -0.37559895620378
H         1.01320575580753   -4.75922286789689   -2.58592272060426
H         2.11147924747054   -6.50022618799470   -3.91882730626632
Cl       -1.92370022196337   -0.90554092048462   -2.39516889901362
