69
 energy: -121.964431208525 gnorm: 0.000352525968 xtb: 6.4.1 (afa7bdf)
Ru       -0.53144576040253   -0.81362070178238   -0.48098874876893
C        -1.22136672469454   -0.76471724749157    2.92696743719388
C        -0.31473257673226   -0.45513708767032    1.77985347179180
C         0.65915767036539   -1.39013273784729    1.35662137241630
C         1.60390578490811   -1.05028862258988    0.35519713333212
C         1.55963238600413    0.19775398759393   -0.28502188515649
C         2.58661231743231    0.58421022636200   -1.32090963626664
C         3.92996760837933    0.84542217968960   -0.62955717654608
C         2.71986411468649   -0.49112859563402   -2.40121318871197
C         0.58000557819702    1.14252105589337    0.15057983079649
C        -0.31738107602408    0.83502092125837    1.17442073577920
H        -1.44724509063371   -1.82680898020559    2.97252727620625
H        -2.14992357888448   -0.20274006710042    2.86831303018376
H        -0.72115193026593   -0.48582675488576    3.85487140936111
H         0.75126275275090   -2.33588483307978    1.87947447670542
H         2.38716060457311   -1.75504541273608    0.10678214244180
H         2.25573824904700    1.51089430257037   -1.80227759204342
H         4.29572616465721   -0.05638804265332   -0.14623044803696
H         4.66265212910587    1.16421269858427   -1.36541986801066
H         3.83285321782775    1.62758137418908    0.11971740959581
H         3.17764108888453   -1.39332137186680   -2.00823305965042
H         1.73739039418912   -0.73818772681108   -2.80276426726429
H         3.33845857086018   -0.11944179681504   -3.21334044537509
H         0.58964715915743    2.14124141640102   -0.27492544657594
H        -0.97904321109087    1.60332582000488    1.55877973337707
C        -5.04952602717968  -10.84629883525555   -4.22875081156151
C        -3.68184812088227  -11.27614780668431   -3.80288577975317
O        -3.09252643722674  -12.25666697170652   -4.20064790691237
O        -3.17068009762507  -10.43392887578031   -2.90453657537569
C        -1.80655311211036  -10.62029591654665   -2.50285766292714
C        -1.15317082595386   -9.26924993020378   -2.39672445300007
C        -0.72063313141443   -8.60534845542474   -3.48658233550505
C        -0.86318187773128   -9.09286977127779   -4.89001053344892
O        -1.80515391590481   -9.73768901629160   -5.29609619066183
O         0.16539053100416   -8.73711178942086   -5.63218110921025
N        -0.08086518774836   -7.37745201812833   -3.35510699325156
C        -0.09987250931811   -6.21361735789384   -4.06163180216389
O        -0.48211723263472   -5.91813845288062   -5.15875365226612
C         0.51732268097930   -5.43964086415271   -2.86904986506296
N        -0.25599539861596   -4.35843236753187   -2.35895316953126
C        -1.59885632751012   -4.26095184002724   -2.30059709610031
C        -1.83174005032309   -3.07637597485529   -1.62877608503854
C        -2.93837679633362   -2.28209361919194   -1.15698503688007
C        -4.28828978225817   -2.56753622123789   -1.33433035045477
C        -5.23430952452358   -1.69692065161453   -0.82621558836281
C        -4.78362309528155   -0.55941349262181   -0.16348292603137
Br       -6.01884896853457    0.70372577702080    0.56290753162236
C        -3.42258765336424   -0.33121532036471   -0.01913214333381
N        -2.51547318674508   -1.17822689013337   -0.49101860953262
N        -0.60281434969987   -2.55887098587973   -1.33368336212345
N         0.32513743033124   -3.32498530205558   -1.76821938600048
C         0.39840291190895   -6.79287639219000   -2.12248400535633
S        -0.90112564622681   -6.93419736129839   -0.85047920803403
C        -1.03395772695455   -8.74423668570033   -1.00118599512452
H        -5.64205075268949  -11.71449958501683   -4.49817012672459
H        -5.52323777932476  -10.26968028160808   -3.44176972971273
H        -4.93201311352802  -10.21811245237019   -5.10999666201460
H        -1.31743000211208  -11.25706281300499   -3.24796088101272
H        -1.80513770633524  -11.13114589343946   -1.53628832292326
H         0.09393414719134   -9.03864834271931   -6.55900833834502
H         1.54059953726313   -5.09226185302781   -3.02086394493625
H        -2.26530728263197   -4.97990449159013   -2.72701248315979
H        -4.58340509389472   -3.45488704971036   -1.86833250310105
H        -6.28886049151543   -1.88583419840326   -0.94504373913910
H        -3.06704297281474    0.56322188302242    0.47481677655417
H         1.32479905266486   -7.22773171049291   -1.74823066538589
H        -1.93268601246443   -9.00116870906893   -0.44034848209978
H        -0.17215125506884   -9.18561117050008   -0.49538280686985
Cl       -0.99878068908174    0.07419805385878   -2.64439868658316
