76
 energy: -110.254921574502 gnorm: 0.000735200792 xtb: 6.4.1 (afa7bdf)
Ru       -0.92790500228590   -0.87194809149613   -0.54636828970232
C        -1.50166962217807   -1.20135755501242    2.85884359137236
C        -0.56792274245781   -0.86825565558292    1.73659760082881
C         0.20328930523180   -1.87579902331459    1.11145314157519
C         1.16576808478202   -1.54123478955302    0.12698207102543
C         1.32713978843446   -0.21445166772219   -0.29328596414355
C         2.37089148140625    0.17213629571745   -1.31277269868560
C         3.72980771081376    0.27746458181872   -0.60872614264969
C         2.43527042828553   -0.80959478176950   -2.48272608745638
C         0.61878068944779    0.80922512441225    0.41011260714014
C        -0.27476447669145    0.49258575736293    1.42386976574710
H        -1.82796477655119   -2.23625203211012    2.80171703081520
H        -2.37509168372529   -0.55430026594150    2.85325410020764
H        -0.98483680138836   -1.05652996820245    3.80769725088383
H         0.12979752119163   -2.90117814420635    1.45916821393698
H         1.79077591813338   -2.32003655832261   -0.28882821580013
H         2.10704912406020    1.15812257393452   -1.71204905807414
H         4.01963897479590   -0.68546438715927   -0.19583690059495
H         4.48788913746181    0.59100992886965   -1.32112433550704
H         3.69337343643630    1.00543691674387    0.19833821866546
H         2.85870507922534   -1.76253690241185   -2.18071644152015
H         1.43770430902429   -0.97548406438391   -2.88724182653995
H         3.05887724489017   -0.39786522605564   -3.27181113465369
H         0.84449257429124    1.84666072619011    0.18907751196408
H        -0.72871866027672    1.28124963394282    2.01001708801259
C        -3.16346256834250    1.39642154382940    0.19865579341148
C        -3.79090425667869    0.12061946402087   -0.24742974325441
C        -5.17815142739843    0.00848947925944   -0.32574948405267
C        -5.75903382985455   -1.14847901312116   -0.81183530983502
C        -4.93334722674384   -2.17222634245960   -1.24647750126591
C        -3.56116080440349   -2.00839148799300   -1.12734448437185
C        -2.57561228535271   -2.96316555536163   -1.57666968796113
C        -2.51555633677678   -4.20243894261495   -2.18852311869796
N        -1.20179822521557   -4.45459759796018   -2.32429336970033
C        -0.58750099178874   -5.65114374950381   -2.81445662506215
C        -0.52936936443210   -6.72121893546122   -1.70269768681916
C         0.31061278692792   -6.27525313804987   -0.49936107426308
C         1.10972499044369   -7.52043985370914   -0.11155652866043
C         1.35708340592898   -8.20147192262753   -1.45428964863369
N         0.14046538609842   -7.91274837645406   -2.19395580524585
C        -0.41687405990202   -8.69206790348493   -3.13371072260751
O        -1.48763941693431   -8.41632329457137   -3.66320322162281
O         0.34406951983363   -9.75997408132315   -3.40272253305941
C        -0.04432506160071  -10.73299363809458   -4.41234291030943
C        -0.13633661759781  -10.06137872939717   -5.78205782856556
C         1.09260855683007  -11.75471819193391   -4.39187617494199
C        -1.36787846841005  -11.39430871561730   -4.03010547348221
N        -0.47572506856576   -3.46604227448354   -1.83234799894342
N        -1.28647871189324   -2.57393802733281   -1.39040759979213
N        -2.99942621420552   -0.89622239628737   -0.59477835732529
H        -2.19877660768158    1.52509376072309   -0.29822456223523
H        -3.02624691216341    1.40271388492702    1.27769642342580
H        -3.80356109925285    2.23409135835693   -0.06191284097102
H        -5.78646538445842    0.84082692137676   -0.01282377112814
H        -6.83056118937417   -1.24256975705756   -0.87508146920485
H        -5.32813386386317   -3.07651595042359   -1.67646726204514
H        -3.27500728809109   -4.87512407614721   -2.52586674229478
H         0.42338336607629   -5.40510874893911   -3.14022664800218
H        -1.16380000275811   -6.04758908970631   -3.65230558236891
H        -1.55603907865765   -6.98504900255632   -1.42147310283914
H        -0.31342987319200   -5.92136754719267    0.31696622666949
H         0.98463933703232   -5.47475079831983   -0.80217592013039
H         0.51328540752145   -8.17049782822134    0.52765279303375
H         2.03644208799348   -7.27914225430488    0.40067541427884
H         1.50268412265735   -9.27767239570391   -1.37808935879209
H         2.21658924278213   -7.76607107518331   -1.97302811781251
H        -0.34146659323610  -10.81039922984190   -6.54023301271080
H        -0.93675043596292   -9.32574022555878   -5.78892460359002
H         0.80229839918749   -9.56562642693287   -6.01852827753811
H         1.16776056757293  -12.21071896747853   -3.40875245169075
H         2.03531149268152  -11.26678312036280   -4.62220440178144
H         0.90292700501904  -12.52851255100309   -5.12822062992830
H        -1.60406367987808  -12.17415626387117   -4.74711625695486
H        -1.29366281618191  -11.83590331373339   -3.03877149158541
H        -2.17043504963959  -10.66082428928789   -4.03040513440821
Cl       -1.16306990648193    0.15412324149855   -2.68852822113883
