61
 energy: -97.526439262427 gnorm: 0.000158439799 xtb: 6.4.1 (afa7bdf)
Ru       -1.12768456926896   -0.89416647271009   -0.22271441170396
C        -1.21128492187978    0.08430806056185    3.09643256632977
C        -0.48389067909501   -0.00192334729735    1.79158381748014
C         0.35660619338342   -1.09583232261775    1.48776669947048
C         1.15579108278648   -1.09742973961381    0.31297907758882
C         1.05847528980952   -0.06244555219682   -0.62004280441303
C         1.92169957039111   -0.02429760830082   -1.85620739614033
C         3.33423868397286    0.42621423157800   -1.46362621815602
C         1.95462412058714   -1.37365641154637   -2.57541834119436
C         0.20032664579463    1.04013241956047   -0.31607820302793
C        -0.51472833462657    1.09291408467714    0.87777970640651
H        -1.28802164063397   -0.88998216890891    3.57023024259924
H        -2.20651674134613    0.50265552259120    2.96548670815515
H        -0.65969211838034    0.74409674386962    3.76617999450200
H         0.49301232342050   -1.88484061327895    2.21996152714775
H         1.86029067082888   -1.90355073997393    0.15482485982785
H         1.49949920726220    0.71619767544041   -2.54488614664446
H         3.78703793417654   -0.28694122906543   -0.77911931351113
H         3.95695118194641    0.49457931403953   -2.35147420797945
H         3.31099341184604    1.40221249447677   -0.98396067300917
H         2.51121519200965   -2.11247473884327   -2.00555606220738
H         0.93982893813431   -1.73639420337813   -2.73345781279046
H         2.43515310397263   -1.26122416940948   -3.54387625609822
H         0.18757715337356    1.88883460171804   -0.99233506144806
H        -1.06978049231723    1.98610139386112    1.14246769719964
C        -5.56309273307262    2.01173569332701   -0.42180351840024
C        -5.02229751617136    0.66458980749881   -0.08908314856472
C        -5.85277499650929   -0.37289282383335    0.32959502945833
C        -5.29441600602231   -1.59743285605516    0.64417083249818
C        -3.92087962641643   -1.77516936074373    0.54544681424652
C        -3.29340300216395   -3.08516172904968    0.96225468207157
N        -2.36055973838267   -3.57682701659328   -0.01984132795596
C        -2.18893368612208   -4.81375677540794   -0.51596257209485
C        -1.03904574422711   -4.73664020519734   -1.29349712365991
C        -0.34544579363548   -5.75742984087421   -2.05349563808668
C        -0.81081045720462   -7.07601339655474   -2.08555801603900
C        -0.12720209055490   -8.03399958678829   -2.80086481560366
C         1.03174273020723   -7.67799896407367   -3.49089438615658
N         1.73942344937650   -8.66608509728866   -4.22367237474483
O         1.30480993639645   -9.80996943403519   -4.23436239545702
O         2.75751085540107   -8.33730769671624   -4.81745917164931
C         1.50456434987412   -6.36531059126344   -3.47076705134731
C         0.81557753980140   -5.41342399073149   -2.75428290616649
N        -0.59062675490155   -3.45953920842942   -1.21866155022108
N        -1.37997260226470   -2.79770270304016   -0.46900100654744
N        -3.11854101170265   -0.78096489768660    0.14005387720231
C        -3.66273491812864    0.39591127129144   -0.17305847441642
H        -5.82671577539029    2.53912317912772    0.49363452099110
H        -4.83512930778784    2.60490803807624   -0.96639652640454
H        -6.46563744010782    1.92065857695288   -1.02027632713591
H        -6.91763217234165   -0.22052129482148    0.40032455118552
H        -5.91799191068588   -2.41350688029743    0.96914072039464
H        -4.06549029857922   -3.83785293183400    1.12096161006804
H        -2.74714630071103   -2.92937701556558    1.90452275823158
H        -2.84915498615018   -5.62543970327773   -0.29747522704144
H        -1.70441600928640   -7.35316178715215   -1.55262312405495
H        -0.46496982966256   -9.05771482748058   -2.83965141033875
H         2.40215023981331   -6.12263680550429   -4.01738946209924
H         1.15765894354296   -4.39209167713938   -2.72706959438143
H        -2.98381119845075    1.16033428718801   -0.53434135779238
Cl       -1.79381134390167   -0.70541098121313   -2.51294687836780
