57
 energy: -92.192170868826 gnorm: 0.000186830800 xtb: 6.4.1 (afa7bdf)
Ru       -0.95817458977658   -0.46485730773106   -0.04859953077330
C        -0.88069507144758   -0.53204504043159    3.41004247245243
C        -0.30149128634513   -0.08951508184149    2.10346459740894
C         0.67812548699776   -0.86329964781604    1.43919436878827
C         1.32779233102531   -0.37600276474592    0.27444611389791
C         0.95969296680181    0.85160694478328   -0.28949707382201
C         1.67312109542233    1.42278429940401   -1.48984034008322
C         2.97834776195192    2.07521797537174   -1.01625855851567
C         1.94163790361068    0.36820694838084   -2.56378632357286
C        -0.03214442207975    1.63469459845261    0.38223253271029
C        -0.61914145579375    1.19279615616033    1.56630274991853
H        -0.84268565017048   -1.61362220315510    3.50775655206402
H        -1.90980653407193   -0.19923710858751    3.51948543754273
H        -0.29847548842353   -0.09575924696520    4.22206226047481
H         1.01738905507924   -1.79143182591695    1.88661250841163
H         2.13504671403821   -0.95064997396840   -0.15988988025849
H         1.03438252057821    2.19775840580224   -1.92849357253849
H         3.63398513436302    1.33328975255576   -0.56727683391304
H         3.49125734780698    2.52392588591957   -1.86229905493200
H         2.77846570638507    2.85273595383303   -0.28251802701498
H         2.70757872567454   -0.33485113518453   -2.25022650588661
H         1.02604503862037   -0.17793706368509   -2.78805581090302
H         2.28173586042652    0.85322477385798   -3.47481976144308
H        -0.26041306939837    2.62524012578150    0.00188274596943
H        -1.28317244313329    1.84890735501432    2.11767309429362
C        -6.36515466281422   -4.07990721151454   -0.68812213205911
O        -5.00484215111548   -3.65852846633296   -0.69010954570663
C        -4.70223821811727   -2.47076225669751   -0.15192896157305
C        -5.59810708929032   -1.58279603571545    0.44342539535637
C        -5.11684885445046   -0.38618585137150    0.94815807048880
C        -3.76811990057510   -0.08655192900556    0.86168568881676
N        -2.89916781845885   -0.92533937636183    0.30716437902468
C        -3.34676564345724   -2.09120112225745   -0.19869683690193
C        -2.29059724935072   -2.87617476542234   -0.78471152399901
C        -2.10759516464007   -4.10085584264407   -1.39177691604939
N        -0.78346380926916   -4.15685373579989   -1.66358944790280
C        -0.05799868438023   -5.20320784031230   -2.25620018213831
C         1.33164172249900   -5.18513596911916   -2.16398298967879
C         2.07272860885858   -6.20620136686452   -2.72602998387223
C         1.40442524002093   -7.23113884777022   -3.37210848847278
F         2.12654964513436   -8.24065721746504   -3.92131061814932
C         0.02600052069309   -7.26292840547722   -3.48160111490032
C        -0.71179226715815   -6.23743815130851   -2.91966152183843
N        -0.17472899227539   -3.04851458242184   -1.25582188878376
N        -1.06268088230303   -2.28487152686158   -0.73492054326163
H        -6.36503515712310   -5.05087294179012   -1.17621213914473
H        -6.99027176265040   -3.38666717354463   -1.25321264681249
H        -6.74071507590306   -4.18202134265469    0.33123377808957
H        -6.64864189539730   -1.80967185918772    0.50689147680495
H        -5.78985647081954    0.31831968354146    1.40694648474771
H        -3.38171779097228    0.85221412687014    1.23053087133963
H        -2.81088298206627   -4.87412683716657   -1.60871316139236
H         1.81635699302039   -4.37077702566087   -1.65331678550577
H         3.14820657550664   -6.21920785028271   -2.66784883902511
H        -0.45186840504210   -8.07680070704532   -4.00099655641266
H        -1.78359164808894   -6.24940661381919   -3.01800592930652
Cl       -1.82001036811140    0.19574926626053   -2.17617455204556
