62
 energy: -97.524770952992 gnorm: 0.000218245713 xtb: 6.4.1 (afa7bdf)
Ru       -1.20640893454243   -0.92899854599633   -0.31169612164189
C        -1.44199184089731   -0.59239633435493    3.13245052657844
C        -0.68031723173865   -0.39461466351856    1.85893886250122
C         0.23631119346356   -1.36220105801061    1.39185065585777
C         1.05518885302377   -1.10996857425463    0.25918727417421
C         0.91892688979841    0.07807752947120   -0.46728167017668
C         1.80078655390459    0.40260656285902   -1.64593886026915
C         3.09167700851633    1.04707718354282   -1.12345191870902
C         2.10764883012139   -0.82222006254205   -2.50745448106585
C         0.00285231669451    1.06593295887033    0.01328117464068
C        -0.75015853318130    0.84983812954988    1.16338882284535
H        -1.46961464914762   -1.64088539569766    3.41453317530028
H        -2.45670543724565   -0.21096227161199    3.04741981114701
H        -0.94585933518208   -0.04086401619538    3.93118354088327
H         0.39835612357835   -2.26791531936955    1.96728881633487
H         1.80517532095453   -1.83631832695746   -0.02468668724746
H         1.27517900403179    1.13369282357464   -2.27111121040037
H         3.63608968891867    0.34815239065922   -0.49296615848876
H         3.72662704031756    1.32492249075654   -1.96012973307265
H         2.87342183910463    1.94150338256060   -0.54432271180807
H         2.79832750251635   -1.49808837537236   -2.01109633809411
H         1.18919060361603   -1.36124555353452   -2.73628687398806
H         2.56177189311645   -0.50571207706143   -3.44290827329660
H        -0.03382669144660    2.02737264469579   -0.48783983862796
H        -1.37116112455221    1.64288022657339    1.56537598292702
Cl       -5.60128501252013    2.27347961956499   -0.91821913661437
C        -5.06335912776083    0.67947194484334   -0.51885522956032
C        -5.96816265557796   -0.34667869752946   -0.27896882705622
C        -5.45614647625159   -1.59602291529358    0.02586514658539
C        -4.08282984134622   -1.79098951921620    0.08502826146872
C        -3.51861474454054   -3.13739339245759    0.47319148078689
N        -2.50880657540154   -3.58089381579244   -0.45491403546494
C        -2.33349608531027   -4.77651365384664   -1.05087353471582
C        -1.11561582564054   -4.67913086068578   -1.70989394479039
C        -0.41658927337427   -5.63052971298790   -2.56412589826099
C         0.21706273717769   -5.13973784424626   -3.68418394853298
C         0.84783288806912   -5.99790828677026   -4.59062473622137
C         0.83692032198844   -7.34831688989632   -4.37626509317884
C         0.23111881671658   -7.89013286915588   -3.22347329633043
C         0.24402388403738   -9.28003211181394   -2.97791073552852
C        -0.30698285691385   -9.79797594143373   -1.84009988322098
C        -0.87490262796337   -8.94100015037760   -0.88599695228501
C        -0.91438289466763   -7.59100964372331   -1.10070555001025
C        -0.39148307077582   -7.02536440529231   -2.28278841161662
N        -0.63479373980785   -3.43454103601698   -1.48030116522541
N        -1.46598766169173   -2.81085535341474   -0.73834138173461
N        -3.21945118154557   -0.78964170907585   -0.15127156983020
C        -3.70265996789390    0.41706907620121   -0.44988446291441
H        -7.02934013054577   -0.17267415617121   -0.33513016137418
H        -6.12500837827959   -2.41863182126018    0.21851038671927
H        -3.05774882440013   -3.05165752852631    1.46872109640181
H        -4.31155802504631   -3.88412074586604    0.51065907138623
H        -3.05241646279771   -5.56616375754463   -1.00607320809030
H         0.20363785802081   -4.07654820535659   -3.87010947421549
H         1.32770448780118   -5.58578491693044   -5.46515829277276
H         1.30052356618861   -8.02205807944221   -5.08192208809420
H         0.70912649895014   -9.92706467841931   -3.70745935409071
H        -0.29244306078441  -10.86248690100310   -1.66081417592188
H        -1.27575368176587   -9.35827812400798    0.02519498818291
H        -1.32479868045240   -6.94508382078466   -0.34230467310948
H        -2.98871068580647    1.20140280717347   -0.66877825957918
Cl       -1.64573939387787   -0.53854665206442   -2.63170371744474
