59
 energy: -99.738383903755 gnorm: 0.000184220161 xtb: 6.4.1 (afa7bdf)
Ru       -1.47612602740350   -0.83887790915387   -0.15206345845460
C        -1.39793240309159   -0.19247732135049    3.25067504377520
C        -0.73129106142078   -0.16276487714283    1.91085738561577
C         0.07135458012536   -1.23558120740253    1.46438623179015
C         0.81443430170772   -1.13976583753998    0.25739248305298
C         0.69927240024237   -0.01581119140214   -0.56455250306230
C         1.50130248210339    0.12987864667495   -1.83309080319116
C         2.91240658324894    0.61018806494592   -1.47076581357913
C         1.55229906279612   -1.16736772252194   -2.64112709858220
C        -0.11086229282948    1.07256103631429   -0.11150384084966
C        -0.77349675736578    1.01877278482156    1.11155383701912
H        -1.46708109914180   -1.20676456448381    3.63313465640351
H        -2.39168823264190    0.24696861294608    3.20616514666090
H        -0.80705812155438    0.39482644780866    3.95362129558290
H         0.21942414658187   -2.09670060195470    2.10781789718372
H         1.48890076197985   -1.94163828776894   -0.01248484378443
H         1.02155252297881    0.89608942940514   -2.45267340481286
H         3.41938272386267   -0.12783360124958   -0.85378686101271
H         3.49261506404198    0.75985208037406   -2.37713681994111
H         2.87466644452479    1.55144055214078   -0.92699412559768
H         2.17672859815079   -1.91293902060162   -2.15660596750829
H         0.54799444950805   -1.57015526634821   -2.76629257963635
H         1.96766339106239   -0.96862286340414   -3.62575887850255
H        -0.12876600684619    1.98521367070256   -0.69818920302992
H        -1.29664430665987    1.89114693283914    1.48765489586366
F         0.40838777305908   -8.95066606704023   -5.63562685024398
C         1.09414878911179   -8.63216980115357   -4.51086458270822
F         2.32936037938836   -8.29803681408921   -4.91989284790508
F         1.22851887815822   -9.79660807177534   -3.83846125051445
C         0.41352928412461   -7.57257880676973   -3.70324584237257
C        -0.77596525994642   -7.89477902546553   -3.05757979677594
C        -1.42870249166920   -6.93544709356697   -2.30994774148573
C        -0.89945651680828   -5.64897021799572   -2.20480078158896
C        -1.55650714188504   -4.62894696197249   -1.40588678893404
C        -2.71029376248775   -4.69172543293969   -0.63548154812060
N        -2.83094500283453   -3.47051315382463   -0.08370632244604
C        -3.74342266984783   -2.98626274966521    0.92092567807872
C        -4.31086763665217   -1.62995942512144    0.56978285992442
C        -5.67723513652001   -1.40579360063499    0.66142044985947
C        -6.18325240315175   -0.14115172430694    0.40844889125132
C        -5.29345025100108    0.86574340761824    0.06765302734220
C        -3.94708306780958    0.56495751421758   -0.01755469782445
N        -3.45642337712187   -0.65157173883190    0.23244240816695
N        -1.81754460005809   -2.71657019729480   -0.49544030504137
N        -1.05455884304183   -3.37755232255886   -1.27448986451980
C         0.28959889870169   -5.33737851460272   -2.86402084104100
C         0.94717557596173   -6.29260095057689   -3.61298840594763
H        -1.17530077782177   -8.89339954149066   -3.14284853811440
H        -2.34756635147045   -7.19323324125914   -1.81139437808476
H        -3.40466160861249   -5.48338640398420   -0.45374041273460
H        -4.54786784989213   -3.71146920199918    1.04252378872314
H        -3.19353955354163   -2.89927841489720    1.87013066250584
H        -6.33586464115730   -2.21437197547099    0.93153748321650
H        -7.24128456342752    0.05192258659818    0.47185665783203
H        -5.63071015403826    1.86702915706828   -0.14007495624891
H        -3.23390648534936    1.32344813762745   -0.31837796815157
H         0.68654575959615   -4.33892718512683   -2.78331783671532
H         1.86791283604298   -6.05526328206204   -4.12174425873378
Cl       -2.16607023196036   -0.49451387325954   -2.41890376204029
