67
 energy: -102.034628594181 gnorm: 0.000356461581 xtb: 6.4.1 (afa7bdf)
Ru       -0.80221098713402   -1.01149832340437    0.00261895587316
C        -0.97126695657862    0.33880401329150    3.22430719449986
C        -0.25636400327313    0.13078759673611    1.92720279690059
C         0.62363322431011   -0.96543871963523    1.76214395629598
C         1.41140385387236   -1.09079020508834    0.59124975820444
C         1.30594312964115   -0.16172978071453   -0.45638428919703
C         2.18232323381813   -0.26150397795767   -1.68182453283295
C         3.64051586205037    0.01241439081131   -1.29790638882353
C         2.03213732507580   -1.62769519171377   -2.35464674087414
C         0.40755351368661    0.93199609522834   -0.28944086248897
C        -0.33805186980244    1.09322467804081    0.88377515001561
H        -1.26567536405822   -0.60980984363318    3.66590249715465
H        -1.85033365084056    0.96534550941694    3.10293837196269
H        -0.29610991483176    0.83836416634443    3.91971489940190
H         0.77676282376989   -1.65334505093253    2.58628457675200
H         2.13134461186394   -1.89671092588610    0.52418095061601
H         1.86118077921471    0.50525792294068   -2.39576143960302
H         4.01020894488498   -0.74767866023624   -0.61505561700933
H         4.26164615054461    0.00501486106551   -2.18925534476027
H         3.73614607554321    0.98527603093377   -0.82076880860352
H         2.41434660232264   -2.42354305157335   -1.72243846974875
H         0.98055130035402   -1.82252158882609   -2.56394649681988
H         2.57792581829133   -1.63884217181096   -3.29420872784842
H         0.36186074001204    1.69461766441196   -1.06150964720252
H        -0.92937292524797    1.99072606707060    1.02493344286093
C        -6.31364289561417   -4.53117150079665    0.10731745032280
O        -4.94238596509608   -4.15814967416587    0.02432172759575
C        -4.60239651803942   -2.89714755862905    0.32281866414148
C        -5.46785380958275   -1.88648384921260    0.73897909483253
C        -4.95016097883898   -0.62713903576902    0.99504550786504
C        -3.59600580784811   -0.38803682572535    0.84138334549189
N        -2.75427936351960   -1.34388846474727    0.46084149043482
C        -3.23736715694553   -2.57412803843862    0.19762317678717
C        -2.20987807899280   -3.48952219531505   -0.22917919660394
C        -2.06482398354150   -4.80862555260851   -0.61723737249997
N        -0.75171708286569   -4.94691745536402   -0.87315705677787
C        -0.07370615910894   -6.10342505747665   -1.38622039678827
C        -0.24019497171892   -6.19588575929087   -2.91379655022918
C         0.56234447126471   -7.33513798592433   -3.44571669188301
C         0.11133755369084   -8.56867644630566   -3.81940690847212
N         1.15465247278440   -9.35101202947883   -4.22545472168794
C         2.31081339317875   -8.63564497655365   -4.12064326099188
C         3.62313139118557   -8.98834703233473   -4.41261465532427
C         4.60049504368980   -8.03923194272912   -4.20524313421511
C         4.28660507887196   -6.76504788357084   -3.72162070593541
C         2.98977683900008   -6.40829655664086   -3.42989802927640
C         1.97932880402348   -7.35003027404203   -3.62617935729211
N        -0.10694725495878   -3.81447342221298   -0.67285008533378
N        -0.96552193696544   -2.93989942642435   -0.28695564274596
H        -6.92411999050876   -3.93326407555420   -0.57137651868826
H        -6.68311136072271   -4.43614134735233    1.12969178118387
H        -6.34518912161946   -5.57388497616842   -0.19722607946519
H        -6.52285457145690   -2.06790492596985    0.85404245071299
H        -5.59951891819905    0.17159394843031    1.31116988938979
H        -3.18071357004041    0.59381558797748    1.01357154908500
H        -2.78031440731720   -5.59620340881051   -0.71424513303358
H         0.98405945876419   -6.00354562891380   -1.14293518383240
H        -0.47885686550668   -6.99803427010569   -0.91264198972958
H         0.10462140531630   -5.26277758852347   -3.36322422866987
H        -1.29206270427938   -6.33603051259130   -3.16382266498974
H        -0.89291929996724   -8.94522280485855   -3.83502852099091
H         1.07970042241614  -10.29552034871655   -4.56213330245344
H         3.86829965843359   -9.96960187160870   -4.79099425957755
H         5.63101936185213   -8.27955174269448   -4.42322151479533
H         5.08604454949880   -6.05250318020853   -3.57983071945142
H         2.75927614204358   -5.41818781862575   -3.06692097574510
Cl       -1.67725759015695   -0.81599159685390   -2.21591045507575
