60
 energy: -93.525417961074 gnorm: 0.000237042027 xtb: 6.4.1 (afa7bdf)
Ru       -0.88895235014328   -0.32741287992429   -0.19540325372409
C        -0.27947967789835   -2.77702078983424    2.18873853695208
C         0.21923763973977   -1.66079185452085    1.32995144155130
C         0.77555583797610   -1.93371298927202    0.04894934735486
C         1.30365680272246   -0.90225323803359   -0.72971852005738
C         1.39770338642052    0.43232407212869   -0.23101339491349
C         2.18172089004328    1.49451336201163   -0.96486449399453
C         3.66983230039083    1.29877765584965   -0.64507187308806
C         1.94671246455339    1.47602312810284   -2.47609019608912
C         0.86976887687333    0.69405355755310    1.03874450921489
C         0.23718498808351   -0.32664902366855    1.79684584388649
H         0.57447164486382   -3.27083075752019    2.65291678306624
H        -0.80670084987035   -3.52115671240034    1.59555176963163
H        -0.92895236747366   -2.41112814968337    2.97911427130894
H         0.82293356637798   -2.95771332815128   -0.30196063422450
H         1.74819707048223   -1.13712748643470   -1.68950637504394
H         1.87877103491081    2.47459882613639   -0.57974237060926
H         4.01224760205499    0.32757266985176   -0.99462551442426
H         4.25479258032461    2.06763571684692   -1.14206121998821
H         3.84817809079489    1.36505228548968    0.42544597903481
H         2.45680793231014    0.63859462452802   -2.94582192698313
H         0.88482495238152    1.40359212113013   -2.70641136777076
H         2.33245841648761    2.38925134710341   -2.92096830984894
H         0.98706244138377    1.68034887260879    1.47480373853675
H        -0.09570049443769   -0.10861440851659    2.80567698876553
C        -2.99800889668910   -9.09209527995441   -3.99340133397119
C        -4.13771733055961   -8.47139672195182   -3.23757637437175
O        -5.21495411389472   -9.03979982871903   -3.12992231680580
C        -3.91371810338154   -7.14189193552974   -2.62453868597113
C        -2.69960647680279   -6.45696387743511   -2.71053049480610
C        -2.55832915488129   -5.21891837340467   -2.12066128047114
C        -3.62096988474861   -4.63204895759252   -1.43135928590596
C        -3.44063535486902   -3.32583342023379   -0.82459229491953
C        -4.34529345326226   -2.50472987278854   -0.16289166454391
N        -3.63711673699181   -1.41814402613458    0.19681009691019
C        -4.01535047243192   -0.29689399411138    1.01507961675894
C        -3.52221165108905    1.01675302006838    0.45811980212183
N        -4.40478349682219    1.98951186874772    0.41788987486447
C        -4.02229304074638    3.18763700041486    0.00581987265120
C        -2.70626915690482    3.42629254938504   -0.37228295146044
C        -1.84073531211967    2.34984083397664   -0.32944201850129
N        -2.23369795783680    1.13883482622823    0.08922979803060
N        -2.38578025210612   -1.57087904928923   -0.21947882364525
N        -2.24695341808255   -2.68609665178280   -0.82328494048011
C        -4.83542662139313   -5.31312103419619   -1.34043925324390
C        -4.97343926189986   -6.55018282010523   -1.93152097105629
H        -3.31427102323134  -10.05169210894581   -4.39413338841025
H        -2.69450638508870   -8.44155416216205   -4.80968828239618
H        -2.14988049863068   -9.24020210951916   -3.32966654620006
H        -1.86439251633190   -6.88673375934811   -3.23786168798704
H        -1.62656819479312   -4.68135128897993   -2.19024949295403
H        -5.38383569125194   -2.62059116787416    0.05992377744104
H        -3.58715484675705   -0.43053515875455    2.01942344186689
H        -5.10225210725385   -0.24905814739822    1.09630049242836
H        -4.78585688509677    3.95000954089530   -0.01954642707402
H        -2.37309287480285    4.39418197052226   -0.70351330410967
H        -0.80979054530014    2.44454802838150   -0.65271756771185
H        -5.66794959459545   -4.88059296158124   -0.81031731880154
H        -5.90607204369386   -7.09179880973431   -1.87304973484575
Cl       -1.45628042485767    0.05007125749645   -2.49488409094641
