66
 energy: -104.764152682528 gnorm: 0.000289665082 xtb: 6.4.1 (afa7bdf)
Ru       -0.95553760932587   -1.03645409577923   -0.26641674469389
C        -0.79026465324177   -0.03929810794423    3.04218562952142
C        -0.13629725669662   -0.19716061662187    1.70602413176919
C         0.58405800486069   -1.36641712851977    1.37277011130624
C         1.31395360215569   -1.44836858283865    0.15598795531575
C         1.26523916647043   -0.41056357396033   -0.78017261917936
C         2.06138588720199   -0.45632368274937   -2.06066641498544
C         3.52757616708028   -0.13416933659780   -1.74660089867980
C         1.93221567962638   -1.80491304473051   -2.76963211261803
C         0.53692499051982    0.77168151680545   -0.43862792941825
C        -0.10939084032558    0.89436927869464    0.78785093280359
H        -0.95983571114324   -1.00198827369786    3.51528559322274
H        -1.73390590343635    0.49471155902580    2.95812517915361
H        -0.13523933543170    0.54495945669432    3.68873531340914
H         0.68626303822473   -2.15968386585023    2.10565680634721
H         1.92923789224942   -2.31871663078060   -0.03381401079999
H         1.67104193017109    0.31707405648356   -2.73184686931499
H         3.95341411465535   -0.89066680247354   -1.09229335973674
H         4.10295443801005   -0.11156210218200   -2.66786157526106
H         3.61602241800661    0.83543497953915   -1.26173966005709
H         2.44529142998976   -2.59214500168568   -2.22410334217158
H         0.88112994041655   -2.07275625388749   -2.87107226869976
H         2.36943699464616   -1.74125634670306   -3.76281445043320
H         0.56942333005618    1.61536029300265   -1.12018478980906
H        -0.56488369059570    1.83607871709361    1.07283087866428
C         0.17882432524809  -12.26837302502906   -5.94951781220273
O         0.74661716692945  -10.97923111022718   -5.82061773284094
C         0.17746038156030  -10.08683022210187   -4.95952564671874
C        -0.95382724137593  -10.36315372709925   -4.16522218618797
C        -1.45744083552391   -9.40408861024631   -3.33136764946265
C        -0.87068511526246   -8.12600586855170   -3.24145496975491
C        -1.38066798572656   -7.12647568343341   -2.39327484674204
C        -0.78836303183794   -5.88560896850311   -2.33043631625258
C        -1.30186685320585   -4.84060899622068   -1.46450142265241
C        -2.38123047720278   -4.84310225111992   -0.58836898080564
N        -2.38796207746502   -3.61656151737675   -0.03280896389436
C        -3.18909842142466   -3.07394943336713    1.03536734790835
C        -3.74840400410878   -1.71508764338186    0.68323965158890
C        -5.09551861668175   -1.44116343476511    0.87763247818612
C        -5.59470026383391   -0.17873102473141    0.60707358712185
C        -4.70503498535181    0.77853646174063    0.13691697573881
Cl       -5.23111051254307    2.38154677231631   -0.24307663750173
C        -3.37191491007082    0.43851222842635   -0.04300544383287
N        -2.89934719988519   -0.77844757777852    0.22907498539988
N        -1.38051018677906   -2.91706744259762   -0.53992127226619
N        -0.72739991016836   -3.61693026889066   -1.38365716202047
C         0.34941052225200   -5.61414393942177   -3.12620957622471
C         0.86253741248009   -6.56639719104055   -3.95385904460238
C         0.27167412709973   -7.84814467590042   -4.04026636474979
C         0.77407645799515   -8.84568032288731   -4.88806704334937
H         0.21442046606171  -12.81414714848236   -5.00305031524799
H        -0.85141468058066  -12.21407190865319   -6.31103863533148
H         0.79494074222728  -12.77926716039754   -6.68620550160505
H        -1.42693548112213  -11.33067083963420   -4.21188523337844
H        -2.32469957260350   -9.62424727162905   -2.72708156487516
H        -2.24896237776365   -7.35752806100423   -1.79631760740872
H        -3.09344553354168   -5.59921850384455   -0.33911792628805
H        -2.55091699378626   -2.97179605398142    1.92586180918561
H        -3.99787588641031   -3.77033574091690    1.25593812781921
H        -5.75396123107595   -2.21214844359891    1.24258706903340
H        -6.63595001123240    0.05608529313587    0.74900348704908
H        -2.67660458449002    1.16548534807699   -0.44391155800747
H         0.79372959100056   -4.63411546390113   -3.06377432090532
H         1.72984775339374   -6.35743537168503   -4.56199853088588
H         1.63977869030193   -8.65015625272611   -5.50206090384860
Cl       -1.75331667959902   -0.72218735873062   -2.49881283479246
