71
 energy: -108.760843157214 gnorm: 0.000130189577 xtb: 6.4.1 (afa7bdf)
Ru        0.00037451371919   -1.10742305105938   -0.66926023600315
C        -0.13204864022002   -2.88913436902907    2.25160352747020
C         0.26202052191184   -1.65197937568006    1.51249722391645
C         1.56431789624631   -1.54208344279164    0.94466125607678
C         1.95951955662384   -0.36610501440027    0.30162647506508
C         1.11778790747086    0.78853803647391    0.27506727956505
C         1.63203771879763    2.12546294944640   -0.20366380140480
C         2.51222185186560    2.72729173813494    0.89972770486550
C         2.40209319117777    2.03055760943496   -1.52102594119727
C        -0.15060878392194    0.68483426550815    0.85947067107003
C        -0.59898212373134   -0.53190377942040    1.43627573222920
H         0.21422761256438   -3.77427427278428    1.72247598503130
H        -1.20944385973017   -2.94117072602416    2.38332079707684
H         0.33589358485847   -2.87967104182739    3.23578670008395
H         2.26298265990971   -2.36306500806889    1.05325349703266
H         2.96440299921372   -0.29269591045481   -0.09917109433094
H         0.77340624551449    2.78812281084585   -0.35757144799830
H         3.37476800654296    2.09290926131909    1.09013231315841
H         2.86807026092228    3.70634883458973    0.59118582169902
H         1.95131646069189    2.83743772158168    1.82472695539032
H         3.37218516902827    1.55968099958329   -1.38176778296119
H         1.84217537620293    1.45212090836363   -2.25437902186687
H         2.56957398518764    3.02584390983294   -1.92381572734863
H        -0.78017163857224    1.56523710006458    0.92653182994700
H        -1.55919049317161   -0.55967837041452    1.93978973613302
C        -7.27345872282746   -4.69855507157280   -1.81294063360810
O        -6.45724997183590   -5.65942278373883   -2.45176634239307
C        -5.25625479484925   -5.96704551071647   -1.87942916648173
C        -4.71775092718269   -5.34878134222878   -0.76639104110667
C        -3.46471317805843   -5.71750516471356   -0.29533931075496
C        -2.74167594101068   -6.71951593956395   -0.91441409348508
C        -1.33739503488647   -7.03442550195099   -0.48376486311847
C        -0.32479917603908   -6.39054156951890   -1.45428302988088
N        -0.60315957785696   -4.98918378189522   -1.59610633277152
C        -1.61287671847148   -4.44044700661353   -2.29491651216136
C        -1.55733591976571   -3.09383516062802   -1.99168048892228
C        -2.26313037354704   -1.87795990120163   -2.29662978872813
N        -1.71600871744154   -0.80087176528365   -1.70207046145324
C        -2.23970159665308    0.39955121802203   -1.93398595543808
C        -3.34335095105581    0.56521618793429   -2.75219912290870
C        -3.94417823824716   -0.53429688748759   -3.34587130853524
C        -3.40645752034322   -1.79947248276618   -3.11575006419683
O        -3.87292362390527   -2.96389894552730   -3.58887247009933
C        -5.02745434042247   -2.95246116592035   -4.41985657994576
N        -0.51157391236576   -2.93989507330968   -1.13553546836284
N         0.04457492927237   -4.07420788145385   -0.89934628889337
C        -3.29110795637931   -7.36506016198264   -2.02281987043672
C        -4.53117626536366   -7.00199871213228   -2.51353088334536
O        -5.14151300299901   -7.55660244117526   -3.60258471212852
C        -4.48822508306200   -8.61794259476230   -4.26965883379009
H        -7.54845872919973   -5.02036831104563   -0.80486582699558
H        -8.16765691504987   -4.62731853086307   -2.42800297000484
H        -6.77791894172084   -3.72534671735127   -1.76682452855499
H        -5.26195713887978   -4.57066345352164   -0.25828258760848
H        -3.06170829233564   -5.21361965559944    0.56943029471774
H        -1.16518399665242   -6.65335531297110    0.52194120501609
H        -1.16460328020973   -8.10947482258251   -0.48425510947585
H         0.68897614222596   -6.49349297542927   -1.06931626353389
H        -0.39960880569757   -6.85761676428284   -2.43658169922838
H        -2.26416574428722   -4.98341539933617   -2.94366640838823
H        -1.75630232760150    1.24606409283036   -1.46726551140609
H        -3.73555697158576    1.55360527026240   -2.92253243167167
H        -4.80383255693093   -0.40049719103972   -3.98036110280725
H        -4.81811452965685   -2.46086569679593   -5.37148959137734
H        -5.86720630380616   -2.46396525257392   -3.92298211698201
H        -5.26957443154842   -3.99936046974215   -4.59070206419466
H        -2.73245374680815   -8.15595511092585   -2.49649569213745
H        -4.32507890787452   -9.46710990521843   -3.60083396614492
H        -5.16294069943004   -8.91218523466897   -5.07039358906335
H        -3.53636738356949   -8.29136590442477   -4.69736168407198
Cl        0.96308719688899   -1.05654299765769   -2.85981418621541
