65
 energy: -93.413034851800 gnorm: 0.000157303158 xtb: 6.4.1 (afa7bdf)
Ru       -0.88977506135645   -1.13146199301638   -0.38564150553052
C        -0.35356966147430   -2.83211942649210    2.51663844152764
C        -0.03572158572122   -1.66282181199869    1.63805646116046
C         1.02945819162030   -1.72527012800090    0.69744635153425
C         1.36887436660523   -0.60716614424555   -0.06601010672935
C         0.80386767642867    0.67726119190269    0.21150866661089
C         1.37590206806161    1.93141853523706   -0.40112981130262
C         2.65460994779761    2.30471731627741    0.36030437487495
C         1.66004628464417    1.78020396161601   -1.89649150544342
C        -0.21592554558626    0.74697387726418    1.15663530392815
C        -0.70929185615681   -0.42772342697517    1.78657452559172
H        -0.12950333743744   -3.77000487943640    2.01401628747000
H        -1.39734941205686   -2.82077523820206    2.82166285719998
H         0.26251074985170   -2.77626411939643    3.41425997267066
H         1.58976712374783   -2.64653754608084    0.58895053040639
H         2.18846747444284   -0.67839870118963   -0.77111019135859
H         0.64923026973224    2.74031476096655   -0.26954490872870
H         3.40004246162306    1.51835185397722    0.26719492979154
H         3.06968022962749    3.22160676063634   -0.04888883810589
H         2.44348463028648    2.45989363710456    1.41551654532755
H         2.53155360411025    1.15491654021926   -2.07453863479057
H         0.80880937257873    1.33560168197717   -2.41097352638970
H         1.85458715281642    2.75456302478237   -2.33644540646265
H        -0.61653729736683    1.71187704105035    1.43967911393550
H        -1.48002529153666   -0.33482262268428    2.54484962963725
C         0.75181848439595  -10.26382993359714   -1.75339941386091
C         0.17955402561522   -8.89671960535565   -1.55399404545642
C        -0.83931773324769   -8.66973127131084   -0.64203168086775
C        -1.37591861317672   -7.40402905260269   -0.44519030743496
C        -2.47023783049458   -7.20940414910505    0.55937189183055
C        -0.85898727496120   -6.35091096515040   -1.20056847711480
N        -1.38616165387144   -5.04794260238310   -1.04179080067292
C        -2.66394071562024   -4.65697764744465   -1.21116536370268
C        -2.65225306863791   -3.29571753604721   -0.97107148454618
C        -3.55648094502971   -2.17088812883505   -0.98268696032420
C        -4.91186616562935   -2.24472313094057   -1.26824166203471
C        -5.64567912150539   -1.07022662003960   -1.28844402981337
C        -4.98877986951836    0.12572556860302   -1.06157220780611
C        -3.62223394169565    0.13648137603089   -0.78966923708658
C        -2.89479348744503    1.42258309860292   -0.59935381842681
N        -2.92899121559728   -1.00134164836332   -0.70852259712659
N        -1.36473978455111   -2.97971464090178   -0.67475782313488
N        -0.61849740196637   -4.02092187825329   -0.71380271292312
C         0.17731461913390   -6.54139476766585   -2.12147281283065
C         0.72371190885927   -5.39889652953793   -2.91868666434811
C         0.67691293797557   -7.82162900073973   -2.28306775290277
H         1.79251126659389  -10.28362145083417   -1.43355788011581
H         0.20049180016316  -11.00750968974483   -1.18534476572444
H         0.72606594366760  -10.53554845012373   -2.80683028166806
H        -1.22782871954626   -9.49482878636510   -0.06452680125972
H        -3.44139720755869   -7.38031369002837    0.09692437956474
H        -2.46078166971023   -6.20938746182019    0.98413265260276
H        -2.36140327643998   -7.93028994734156    1.36491199352192
H        -3.44452499287832   -5.32856852584301   -1.49631978077125
H        -5.36340426965903   -3.19969853481373   -1.47484150948065
H        -6.70256568869634   -1.08654972784628   -1.49761829554665
H        -5.52025776352872    1.06196256007001   -1.10096521813584
H        -2.85437516956900    1.67976536227377    0.45747059411355
H        -3.40550764379180    2.22389234767292   -1.12432373302509
H        -1.87963975152776    1.33199024652307   -0.99613893268483
H         1.30426795719203   -4.73546963276865   -2.28053227916289
H        -0.07432673543494   -4.80865485747633   -3.36745116133269
H         1.36832974873631   -5.76566753746469   -3.71185022856880
H         1.47082557782232   -7.99040003333383   -2.99478431904530
Cl       -0.78572311423454   -0.93286327100816   -2.76032402955402
