63
 energy: -91.059293933741 gnorm: 0.000575263761 xtb: 6.4.1 (afa7bdf)
Ru       -0.89986210215906   -0.88679837888060   -0.00137982969223
C        -0.88247831150143   -0.64889402234234    3.45999930914927
C        -0.27746558229432   -0.33757652546005    2.12760891645746
C         0.69938167416672   -1.18581939081801    1.55644240139832
C         1.37252183178416   -0.81876997476978    0.36205635275580
C         1.04013743384658    0.36047273851856   -0.31743470666477
C         1.78071616573701    0.79205525821491   -1.55975678356704
C         3.16570318651009    1.31614616005268   -1.16201734163361
C         1.89116975470147   -0.34445562676336   -2.57735737984659
C         0.05172844735309    1.21573400637846    0.26187917898678
C        -0.56749502657184    0.89307494303841    1.46933040099936
H        -0.88089105237431   -1.71875732106205    3.64982744587896
H        -1.90057296376629   -0.27525459195646    3.53155990973115
H        -0.29194650615780   -0.16420867330430    4.23781365313819
H         1.01634198276464   -2.07210928862171    2.09513880870997
H         2.17148415969107   -1.44829343730675   -0.00786028826483
H         1.21853718962266    1.60959293817188   -2.02509281614459
H         3.75545431068431    0.52830390203200   -0.70049300754238
H         3.69118022428036    1.66891575968142   -2.04502024076329
H         3.07861593786055    2.14242539597530   -0.46010629079833
H         2.56305337981300   -1.12393768454793   -2.23146324310917
H         0.90821549181655   -0.77915205994074   -2.75686594377348
H         2.27273392325513    0.04165572085000   -3.51863351354288
H        -0.15609967331379    2.16997505725568   -0.21241768618563
H        -1.23162902461722    1.60759063521242    1.94223128220063
C        -6.18378814258415   -4.70514972525970   -0.50532424497494
O        -4.84115212032800   -4.23278244665109   -0.54113565565431
C        -4.56951576392633   -3.03357179819964   -0.00911809771177
C        -5.48325032948178   -2.17920564579867    0.60624568231929
C        -5.03399403795716   -0.96580554539887    1.10154278972490
C        -3.69951572415234   -0.61891731467378    0.98570605339796
N        -2.81309193399772   -1.42518971134316    0.40979007926594
C        -3.22995820754690   -2.60576690476516   -0.08783292215463
C        -2.16328580005026   -3.34887929856681   -0.70852419332256
C        -1.95586965507680   -4.55517457411585   -1.35043270168516
N        -0.64776999626557   -4.55766081565717   -1.66103677618054
C         0.10509074399203   -5.57446708842384   -2.36094886400873
C        -0.13023088374862   -6.96815893777896   -1.75136243957755
C        -1.10583524776702   -7.79738241504901   -2.58100438235563
C        -0.54486676891304   -8.05034055431526   -3.98452306041973
C         0.23833274048097   -6.83721888607014   -4.50740960439131
C        -0.25126631209218   -5.54861808001385   -3.85472400012314
N        -0.06254826857627   -3.44766490889029   -1.25474482706598
N        -0.95632498819963   -2.71990934311380   -0.68613669205453
H        -6.84662637257818   -4.04200335357018   -1.06354407534073
H        -6.53377824493989   -4.81057250565007    0.52273953705374
H        -6.15657575634858   -5.68064634955015   -0.98357739110287
H        -6.52348894095174   -2.44327603159092    0.69168667346212
H        -5.72151228472978   -0.28571909716715    1.57533130172362
H        -3.33864545609937    0.33277802389127    1.34721873209532
H        -2.63298528441225   -5.34947131812989   -1.57664226435666
H         1.15114448336792   -5.28400416924650   -2.23685051599795
H        -0.49622812877596   -6.86635557297650   -0.72946790843573
H         0.82113127339977   -7.49763452488632   -1.70878597184115
H        -1.28745833490096   -8.75029115559021   -2.08351994067631
H        -2.06478883574510   -7.28497112403853   -2.65691188335741
H        -1.36981292400031   -8.28208148181064   -4.65963346870381
H         0.11233954876343   -8.92054855251512   -3.96875860641080
H         0.13121792986227   -6.76490880351650   -5.58948631485201
H         1.30131188405676   -6.95559572043270   -4.29310496228066
H        -1.33037023001255   -5.46053969921714   -3.98382674902423
H         0.21350715129595   -4.68277478181301   -4.32646943030004
Cl       -1.84723763221946   -0.28691332774953   -2.11347749254740
