62
 energy: -97.006833459071 gnorm: 0.000480209422 xtb: 6.4.1 (afa7bdf)
Ru       -0.06722802702861   -0.64434496295176    0.33031851344184
C         1.24199690162775   -2.03095006091403    3.25507795966796
C         1.39665853910359   -1.26536037014332    1.98263266943494
C         1.72944188900178   -1.91703133218790    0.76917478406922
C         1.98364308346933   -1.18297488827281   -0.41322886211652
C         1.93718231911292    0.23646239453996   -0.41368356333124
C         2.37729162423415    1.05593878611334   -1.59895410215666
C         3.88466414772581    1.30832674482681   -1.44977420103660
C         2.06992793111279    0.40162846933630   -2.94528515256536
C         1.55544061005062    0.88680842015123    0.78209492571603
C         1.27614818463198    0.14682164571310    1.95786972650530
H         2.21543731581430   -2.10510565702252    3.74069690495853
H         0.88274982196660   -3.03857331437650    3.06628383579277
H         0.56264124247544   -1.52787608604985    3.93695145927086
H         1.85383670017068   -2.99481725858448    0.76022895816519
H         2.30622390317939   -1.70885490125361   -1.30396704045116
H         1.85856218640930    2.02025480457364   -1.55809091191976
H         4.43032165559561    0.36822350360010   -1.46981662706117
H         4.23141381906354    1.92778780971897   -2.27155748510080
H         4.10087062711487    1.81966329561917   -0.51565047581155
H         2.70782946275278   -0.45935709076299   -3.12613208435803
H         1.02881740860491    0.08751937929306   -2.99111196494084
H         2.24208346779052    1.11806647332549   -3.74400411970591
H         1.55618644400542    1.97161842008156    0.81461642712760
H         1.05481365618693    0.67644534664353    2.87930692356435
Br       -0.42609094455641    3.97373065610307   -0.46288684255181
C        -2.16862632517556    3.21541843726939   -0.28119735829046
C        -3.20720546901217    3.67772168484890   -1.06957370904975
C        -4.45208215333770    3.08824307882730   -0.89316901255467
N        -4.67814377961390    2.11893326952157   -0.02649259115661
C        -3.67701568338872    1.68999069354092    0.72421612290190
C        -3.99089009435875    0.54075145510862    1.66216870326391
N        -3.34726965286394   -0.64194975251426    1.15449037347026
C        -3.86687069607886   -1.61897675449275    0.40546127678233
C        -2.78730052259637   -2.43074824149517    0.03989883596524
C        -2.70866663084469   -3.65437108260793   -0.73831135472619
C        -1.81411025450665   -4.62199442528483   -0.32649376796767
C        -1.73671475094747   -5.85415366620651   -0.98006480135440
C        -2.55735238817598   -6.11813187345411   -2.04325579720554
C        -3.45350404435084   -5.14112690109597   -2.52432130827510
C        -4.27111230987282   -5.38986618982960   -3.64754948711869
C        -5.09762709221601   -4.42009481711318   -4.14143472856826
C        -5.12072935028280   -3.14978994331790   -3.54707419562860
C        -4.35126869695388   -2.88148867522845   -2.44798064462274
C        -3.52345222156793   -3.87370205857192   -1.88440843794316
N        -1.70711742307254   -1.89676180492518    0.64351845708540
N        -2.05062772114701   -0.82962321109108    1.30751297242250
C        -2.38797665872515    2.20653968523600    0.64200376669147
H        -3.06122777862233    4.45899909196231   -1.79730794254991
H        -5.30136410928031    3.40613553359526   -1.47994036497796
H        -5.06940232423482    0.38825485100807    1.68791411596058
H        -3.60490774069283    0.75015951852738    2.66185708975874
H        -4.91223691696352   -1.70446419927741    0.19434641284360
H        -1.19180236744332   -4.43182885666503    0.53454927465262
H        -1.04032316199151   -6.59911636766454   -0.62912515331420
H        -2.52386827972955   -7.07612729514058   -2.53995748410657
H        -4.22062186391012   -6.36064961747167   -4.11782488999730
H        -5.71938545655913   -4.61658899796338   -5.00153315964863
H        -5.74672716360352   -2.37902050038038   -3.97039189224836
H        -4.34527401470372   -1.88592560425761   -2.03312710351147
H        -1.58665858546024    1.83576671499978    1.26874649122971
Cl       -1.37222328731494    0.04453359452436   -1.51926436281985
