60
 energy: -95.168823237308 gnorm: 0.000184738858 xtb: 6.4.1 (afa7bdf)
Ru       -1.14198519686050   -0.85214137890284   -0.11878830508723
C        -1.11518858555191    0.12328714897417    3.19897820776169
C        -0.42149753946290    0.01864528233533    1.87746856913748
C         0.37771489521321   -1.10039430042755    1.55313386884267
C         1.14060994778411   -1.12659780159990    0.35457821983771
C         1.05072770506492   -0.08547266959999   -0.57450425325418
C         1.87968059174156   -0.07481379123590   -1.83458723986446
C         3.32012168145042    0.31566172539347   -1.48058073546391
C         1.83667635278593   -1.42073179365257   -2.55962068839416
C         0.24350151978219    1.04751385128869   -0.24248799105568
C        -0.43903470785554    1.11832417946372    0.96835756521875
H        -1.21856762197720   -0.85063506039267    3.66814660205392
H        -2.09594886304991    0.58123905281181    3.09369776926951
H        -0.52294261997479    0.75631815384770    3.85982215209030
H         0.50993314894582   -1.89374853976166    2.28119038435708
H         1.81283073135565   -1.95557907428166    0.17394882738492
H         1.46781471565435    0.68575197049992   -2.50743629196023
H         3.76375142763374   -0.42209921230381   -0.81660824564079
H         3.91819484913070    0.36896833918539   -2.38610818891113
H         3.34925076836684    1.28657627038510   -0.99115769651273
H         2.38171843927673   -2.18414627424472   -2.01150196372713
H         0.80443071021076   -1.74609918024049   -2.68394318957725
H         2.28805591074750   -1.32203517353870   -3.54346446891846
H         0.24200433830422    1.89862433855071   -0.91546734158263
H        -0.95928039226428    2.02718853126915    1.24926751798744
C         2.39046449564643   -8.62314389129066   -4.87367506401390
O         1.19447332756765   -8.81742323882287   -4.14330512003206
C         0.66107448897384   -7.76501707849460   -3.46632234048439
C        -0.50496796926465   -8.03768523900947   -2.74496637349366
C        -1.12451387698253   -7.05033253846829   -2.01475978066046
C        -0.59675465633164   -5.75738650102722   -1.98544553010540
C        -1.21883787443849   -4.70615313493315   -1.20440266965089
C        -2.33392465313191   -4.74318170632094   -0.37540022697085
N        -2.44199613144889   -3.49820853678936    0.12755851537963
C        -3.31345923396399   -2.97646002009830    1.15008909968135
C        -3.92721049447414   -1.65516349643279    0.75034994100191
C        -5.29241536785101   -1.44719776873899    0.89437543641937
C        -5.84509302802251   -0.21667163536185    0.58406291723785
C        -4.98920923689210    0.77689425087356    0.12645160201016
Cl       -5.58224295665301    2.34420103362333   -0.30029991284605
C        -3.63527942085321    0.50231695777288   -0.00261521027013
N        -3.11153380493372   -0.68425209891757    0.30755537914221
N        -1.45858405424475   -2.75670266171429   -0.36524429124386
N        -0.72571695131854   -3.44538738788611   -1.15152596495103
C         0.55937270557056   -5.48828285634968   -2.71353388920482
C         1.18729335775452   -6.47593863917238   -3.44673316211262
H         2.62422955991925   -9.59314850899903   -5.30663280405678
H         3.20606932267847   -8.30895880520556   -4.21747915657334
H         2.25152886773083   -7.89023693441893   -5.67249704002141
H        -0.89883391587404   -9.04095756491066   -2.77781666812189
H        -2.02155195203834   -7.28672667482530   -1.46653779000727
H        -3.00848878318696   -5.53253028197969   -0.12484176017170
H        -4.09385433869839   -3.70997832025680    1.35199854913130
H        -2.71937071992761   -2.82538581284699    2.06388834368350
H        -5.92291059112218   -2.24464805458778    1.25172802346090
H        -6.90113203791652   -0.03303787425438    0.68694452996712
H        -2.96412904762571    1.25722157701043   -0.39307147246648
H         0.96261780653972   -4.48846137503269   -2.70079066177263
H         2.08111136236598   -6.23481293184042   -3.99851506813256
Cl       -1.88126040406456   -0.61597484412645   -2.38140346372766
