53
 energy: -84.953741804577 gnorm: 0.000610416642 xtb: 6.4.1 (afa7bdf)
Ru       -0.49310329164628   -1.00816407598972   -0.28867247673358
C        -0.23681317479769   -1.64424075078631    3.12550224364325
C         0.19388339602292   -0.91343025150491    1.89176402088415
C         1.26949713057145   -1.39024083731332    1.09560409442051
C         1.77400920167661   -0.63887725396947    0.02160419556796
C         1.23216366645656    0.63452357904370   -0.28999168214913
C         1.87779476807757    1.55192122157125   -1.29792345919078
C         2.89209354722500    2.42433595151937   -0.54291637606190
C         2.55836964387498    0.81981519617063   -2.45331086489080
C         0.14158092789429    1.10174592281328    0.47308515046898
C        -0.37710504342592    0.33375494170810    1.54053034675471
H        -0.10288703536444   -2.71646288433663    3.01297687871224
H        -1.27638449071494   -1.43544974302254    3.36368847964185
H         0.37576750616835   -1.31399691792393    3.96491545518528
H         1.75681674332386   -2.32025119038243    1.36713923119071
H         2.64275976850805   -0.99785212447041   -0.51377956079883
H         1.10172553447890    2.20238125052682   -1.71646747100315
H         3.66643936568387    1.80445132812038   -0.09732374458035
H         3.36135098141697    3.11719783665959   -1.23551947122591
H         2.40728862341685    2.99618902462518    0.24429086116450
H         3.46025044073874    0.30870776857662   -2.12678050005476
H         1.88012568350346    0.09566124792547   -2.90005323596994
H         2.84096276102626    1.53585904579106   -3.22056807413471
H        -0.23778500895449    2.10175476175681    0.29435145905566
H        -1.15765510657619    0.75156374827267    2.16863193629837
F         1.68131229929195   -9.85341298128974   -1.54517365995173
C         1.07045114186932   -8.65024287919892   -1.40243996127157
C         1.73850349385341   -7.63651814234590   -0.73870337477227
C         1.11086662329228   -6.41447539331990   -0.59682949447046
C        -0.16628686815415   -6.22490013897294   -1.11889850758540
N        -0.77250175135728   -4.96720785228176   -0.96494329899259
C        -2.07547151697581   -4.63542663419293   -1.10556693850623
C        -2.12729106154461   -3.28237907192643   -0.83766628714178
C        -3.09188591583388   -2.20905126094968   -0.76733515646963
C        -4.45461520517322   -2.31660644105022   -1.01738833410647
C        -5.24083716996981   -1.18197627665687   -0.91686153460375
C        -4.63759355427074    0.02134577944524   -0.57542756383890
C        -3.27345570148466    0.05149874001793   -0.34195403990745
N        -2.51252676770855   -1.03551022277432   -0.42087763853663
N        -0.84844898345275   -2.90161510503539   -0.55570705475613
N        -0.05214557140740   -3.90220255443979   -0.62949536643463
C        -0.82011799699760   -7.25472542041859   -1.78894618379279
C        -0.19680096855094   -8.48078831656081   -1.93032075751997
H         2.72602494946875   -7.81126501530924   -0.34566648115346
H         1.60058117527521   -5.60195745547984   -0.08807070439812
H        -2.84625693562706   -5.33172830448318   -1.35473930703455
H        -4.87248575541292   -3.27028766480058   -1.29182437814160
H        -6.30013404538352   -1.23134622377648   -1.10782620707449
H        -5.21231815247641    0.92847765484044   -0.49511889604878
H        -2.77656510017887    0.97944859309368   -0.09271181514190
H        -1.79707925627364   -7.11250241989987   -2.21814525549723
H        -0.67606353981883   -9.29629272425340   -2.44581149076179
Cl       -0.66568240358202   -0.86039706336524   -2.66967674828397
