66
 energy: -100.714431152676 gnorm: 0.000340248466 xtb: 6.4.1 (afa7bdf)
Ru       -1.23693200088195   -1.30474594730564   -0.22247303931421
C        -0.66720339488185   -1.89438923210861    3.17115048201503
C        -0.26668043478588   -1.28369095259960    1.86216090683283
C         0.63043489949954   -1.95126050181429    0.98667190713337
C         1.12148773550897   -1.32959091431521   -0.17025859148634
C         0.76242860360128    0.00520588303179   -0.48292650066541
C         1.42105865326619    0.76615515266165   -1.60572920417070
C         2.66825560132961    1.45467746361715   -1.03149005240731
C         1.79276725117026   -0.10379012882298   -2.80497683929734
C        -0.11566955164899    0.68357495471516    0.38741121220376
C        -0.64114279733589    0.04226440668097    1.52865666472737
H        -0.73344422169845   -2.97673507067158    3.09712593826162
H        -1.61354242525420   -1.49023593131346    3.52061822511957
H         0.09245784757663   -1.65915370566344    3.91714127252773
H         0.99113051619501   -2.94023246756480    1.24955500083589
H         1.84599058455145   -1.84870876690934   -0.78256854007712
H         0.72524655119645    1.53922050916288   -1.95041712296577
H         3.37889967249779    0.71335287450440   -0.67331888799188
H         3.14783565059319    2.04474976590588   -1.80751758637501
H         2.40699058063489    2.11336199657598   -0.20688359489264
H         2.62086956911933   -0.76941771201998   -2.57548603040694
H         0.93900693622521   -0.69717252075552   -3.12586375867592
H         2.09504641073753    0.52997443976943   -3.63480369618752
H        -0.32704948535957    1.73298152681890    0.21548197981150
H        -1.25928765811855    0.60788370870685    2.21908755681671
C         1.25587185510277  -11.92785874413233   -5.34972440197588
O        -0.01225788882144  -11.91183005594136   -4.72441961606812
C        -0.40894812741833  -10.77764745200043   -4.08270756767516
C        -1.68495950643595  -10.85953664027461   -3.47512126829480
C        -2.20024033824430   -9.79761673071139   -2.79764504146502
C        -1.47642450981649   -8.58829545619733   -2.68589650149894
C        -1.98448198674766   -7.47784819540935   -1.99200437577701
C        -1.26199072611351   -6.30791204442484   -1.90336347701691
C        -1.77686043467902   -5.15270608802400   -1.19212076317411
C        -2.96643854626406   -4.98891725276586   -0.49206903331562
N        -2.92892680282354   -3.72747083440534   -0.02420585521530
C        -3.82139976364289   -3.02755708320773    0.86384439230638
C        -4.19445829517034   -1.66845639294071    0.31775947302825
C        -5.52594025971008   -1.28331451266421    0.25707391364731
C        -5.85257874078766   -0.01346764635261   -0.19035137244923
C        -4.82249772534521    0.83532742398201   -0.56465380727609
C        -3.52037270242848    0.37820523262881   -0.48872927769741
N        -3.20278836472099   -0.84393582370421   -0.05438279606911
N        -1.79385279992360   -3.16324649688011   -0.41554836659758
N        -1.09740758156353   -3.98432613869527   -1.10280308176435
C         0.00633519986742   -6.22592570606705   -2.51917776777526
C         0.52103062657898   -7.29326393771520   -3.19437066876641
C        -0.19902480474511   -8.50360646354238   -3.29869148094213
C         0.31764844690376   -9.61563189140929   -3.99318211006033
H         2.05487366189241  -11.75854573021617   -4.62327470168131
H         1.35473358225547  -12.92319493619032   -5.77663494077917
H         1.31274807238191  -11.17993825769989   -6.14487737201037
H        -2.22315949335379  -11.78926642027199   -3.57173857736425
H        -3.17384461217257   -9.86949006480078   -2.33717905022653
H        -2.95711729683134   -7.56435997406771   -1.53369987795935
H        -3.78059610414854   -5.65465141230751   -0.30524775421317
H        -3.31053539002569   -2.89290015924535    1.82879334267813
H        -4.71380752911455   -3.63438717512937    1.01470059581858
H        -6.29644145202806   -1.97268258692675    0.56004898018879
H        -6.88093371772189    0.30251237072396   -0.24875594240800
H        -5.01749323618862    1.83265214111900   -0.92045918735191
H        -2.69744687878352    1.00717945333645   -0.80716357559927
H         0.55059493976267   -5.29830485720391   -2.44475089576055
H         1.49143279096749   -7.22660076369167   -3.66389417599594
H         1.29110718463229   -9.52315300945469   -4.44860397357889
Cl       -1.70322483829372   -1.15912551741059   -2.56935074323826
