59
 energy: -103.960875414949 gnorm: 0.000172657746 xtb: 6.4.1 (afa7bdf)
Ru       -1.39994595145733   -1.07780044838267   -0.21736715268362
C        -1.34175445936899   -0.26770168532742    3.15314065874440
C        -0.66456605842122   -0.30066753814810    1.81971744443969
C         0.13841401062437   -1.39586324488208    1.43103713898651
C         0.88607290614027   -1.35825630759632    0.22365536038018
C         0.78007538311290   -0.27199147113257   -0.65086454863675
C         1.59284735588022   -0.19195636115790   -1.91859469318590
C         3.02447800799126    0.22869454976890   -1.56310520807166
C         1.58323497435851   -1.51071214188794   -2.69305790389350
C        -0.02728751349493    0.83895685319391   -0.25234434950227
C        -0.69878601215324    0.84278952018836    0.96657136427038
H        -1.44629589007343   -1.26621285496098    3.56712236705217
H        -2.31976000669584    0.20311684265815    3.08827450969702
H        -0.73613027564135    0.32184560625770    3.84176421646858
H         0.28330439666418   -2.22341705125808    2.11747799013052
H         1.56139257580880   -2.17256487207965   -0.00536333563084
H         1.15207965751271    0.58083999697028   -2.55829201991131
H         3.49615458451641   -0.51840831518668   -0.92970138444275
H         3.61165351883142    0.33137338011354   -2.47150018712267
H         3.03060527179098    1.18241786937615   -1.04025006071794
H         2.16267662190876   -2.27417689788326   -2.18188407615040
H         0.56024103084023   -1.86330840732276   -2.81733211442776
H         2.01754888247233   -1.35947055177540   -3.67783962192828
H        -0.03878952533046    1.72413473978938   -0.87971436482412
H        -1.21930519439435    1.73406288993143    1.29931127231853
F        -5.69065469173188    1.76153028530219   -0.27524973394612
C        -5.24497194003758    0.52327790272256   -0.00255049084574
C        -6.13118081234317   -0.48062909355002    0.34835587379432
C        -5.58350353753165   -1.72393652948381    0.61815441426230
C        -4.21095861296710   -1.91727453624188    0.53270894310619
C        -3.61270502742487   -3.25711326501572    0.89378299652174
N        -2.70445239178530   -3.73342721202419   -0.11896343510791
C        -2.57664286797851   -4.95221988997295   -0.67413128835818
C        -1.43508989557832   -4.87372886494576   -1.46211054721716
C        -0.77874542866147   -5.88168723323844   -2.27722032507250
C         0.38843728133657   -5.54759129379816   -2.96402133290003
C         1.04267376343832   -6.48861162756170   -3.73356815239181
C         0.52813755595816   -7.77696312540004   -3.81652020802211
C         1.20472649080214   -8.81804478540093   -4.65139640854138
F         1.33362851142845  -10.00067894423754   -4.01171356227261
F         2.44158686777601   -8.47733455280830   -5.05062633797078
F         0.51857083800035   -9.10173030056881   -5.78568659822883
C        -0.63890241323472   -8.12178894205285   -3.14233402520597
C        -1.28856666626495   -7.17653819333441   -2.37403075494864
N        -0.94783050806714   -3.61640570720048   -1.33630546478916
N        -1.70664881537482   -2.96647393519222   -0.54523309549959
N        -3.37351139356451   -0.92474467856530    0.18489363167715
C        -3.88556522153849    0.27824628474552   -0.08148916657124
H        -7.19036721171500   -0.29186638232589    0.39979204198668
H        -6.22599463621099   -2.54248492444167    0.89736410668118
H        -4.40056758465519   -3.99691647763202    1.03492327124526
H        -3.05187119015425   -3.14772990141869    1.83430984043222
H        -3.25730808715879   -5.75363582474931   -0.48293015290947
H         0.77079570432236   -4.54313312551794   -2.88965121815234
H         1.94637002936570   -6.23393100615504   -4.26404413563077
H        -1.02349633468085   -9.12662071189652   -3.22174091212755
H        -2.18989344235657   -7.45223684762684   -1.85360055198533
H        -3.21336047174609    1.06827618728344   -0.39335199951065
Cl       -2.12835415109734   -0.75563384690330   -2.47267952284839
