73
 energy: -107.082623394020 gnorm: 0.000481637196 xtb: 6.4.1 (afa7bdf)
Ru       -0.09992824362439   -1.71693833926373   -1.15539007090478
C         0.52574260396462   -3.75125567618470    1.55030113629373
C         0.71586094636712   -2.45882991732812    0.82406330425001
C         1.83132721809243   -2.26931932253321   -0.04314725738415
C         2.05941550944062   -1.03347103914757   -0.64988279231412
C         1.25160111478016    0.10573252109665   -0.33993465999747
C         1.64460306151860    1.49698902190331   -0.77467853673971
C         2.63069133183412    2.05057541605283    0.26388926252135
C         2.25238995150763    1.55083634085793   -2.17564139273782
C         0.17164390687127   -0.07419302630104    0.53032812466218
C        -0.13169150079232   -1.35274897769935    1.06907647102244
H         0.92503666064018   -4.58178269118928    0.97558473124806
H        -0.52399906623766   -3.93017539320905    1.76694353471663
H         1.06467051284212   -3.70539314738060    2.49678325972438
H         2.52838071708793   -3.08407755670338   -0.19907255102561
H         2.92973976863650   -0.90431315872611   -1.28183335463228
H         0.74752903196023    2.12542504092808   -0.76829583937675
H         3.52784852729949    1.43729092089066    0.30167013686823
H         2.91733630514395    3.06246492280248   -0.00814052179866
H         2.18180645056236    2.07126711893511    1.25381308899854
H         3.25500869520573    1.13129560000098   -2.19181071069744
H         1.63325118651757    1.00591335027522   -2.88570039067389
H         2.31980572031354    2.58373406701614   -2.50632861241315
H        -0.40523112827553    0.78729723421327    0.84724392350242
H        -0.93632178509634   -1.44794496829076    1.79071754820218
C        -0.86295420464691  -11.49553357347858   -5.40240628891757
C        -0.90124209575181  -12.00174080464014   -3.96093717920367
C        -0.04078867816423  -13.25618326831686   -3.80962724371627
C        -2.33511442097770  -12.27650740121140   -3.50941337154865
O        -0.27208020446452  -11.03874175593634   -3.07135303916579
C        -0.74267919909631   -9.79191694016275   -2.94388041831043
O        -1.71815057979159   -9.32152583183591   -3.51741989225015
N         0.00539387602254   -9.07690746102243   -2.08968402352538
C         1.16430313317146   -9.58118006347802   -1.36968754357741
C         1.75036563227099   -8.33350483779145   -0.71322715033174
C         0.52716888624284   -7.44131948707527   -0.49550938938464
C        -0.33853639182385   -7.71735590390809   -1.72379790417167
C        -0.01484214265265   -6.75896560378368   -2.89579026272907
N        -0.51949969268804   -5.44692693230074   -2.62490574544203
C        -1.76277800411889   -4.99071321521144   -2.85462979325437
C        -1.76989721266804   -3.70870943091912   -2.33551562659470
C        -2.66777249232148   -2.58843381163296   -2.18330781465873
C        -3.98432841857872   -2.52973446778359   -2.62511460797037
C        -4.70770745685351   -1.37040799977301   -2.40751579178002
C        -4.08990411142105   -0.30797358849392   -1.76028165685795
C        -2.77446606401823   -0.43940080260556   -1.35094197618326
N        -2.07557527741857   -1.55385231736889   -1.54241758482776
N        -0.52361260490353   -3.50178537302168   -1.82550566531111
N         0.21096691021362   -4.54123214262250   -1.99804369753703
H         0.15932457376795  -11.25992084098628   -5.68936553875491
H        -1.47423554688183  -10.60258119917971   -5.50569506283886
H        -1.24766118002546  -12.26321564576665   -6.06614212276186
H         0.98035409330136  -13.04786923449806   -4.11581472979876
H        -0.03351293810088  -13.57929752693504   -2.77257813575011
H        -0.44176280029276  -14.05250055622992   -4.42762387876134
H        -2.34351363034939  -12.61422545142892   -2.47554614192317
H        -2.93562330143012  -11.37381193142127   -3.59088821814288
H        -2.77217670571777  -13.04702441363954   -4.13649197155569
H         0.84205420494330  -10.31783194211875   -0.62735095348716
H         1.85117507455797  -10.07172707964558   -2.06000041298546
H         2.26246741867207   -8.57016632969998    0.21487754057709
H         2.45763152532736   -7.85283366730012   -1.38706564233964
H        -0.00161885071455   -7.73965531994691    0.40791662505504
H         0.79109093778047   -6.38901694838073   -0.42863614187062
H        -1.41358454903201   -7.65897825180591   -1.52165399503610
H         1.06356819947928   -6.69261796017442   -3.03537538433809
H        -0.48912859442137   -7.14629758362862   -3.79876528226311
H        -2.51186207664402   -5.56938343193706   -3.35224408082411
H        -4.41304415348358   -3.37684314933080   -3.13337763488428
H        -5.72905656173408   -1.29192281362980   -2.74165988555675
H        -4.61588671667721    0.61379416795980   -1.57819595427645
H        -2.26338770067892    0.37865663655438   -0.86100324855351
Cl        0.08569459641158   -1.12653185331062   -3.46774591303889
