65
 energy: -96.645971096422 gnorm: 0.000276625413 xtb: 6.4.1 (afa7bdf)
Ru       -1.04714864555859   -0.40092931962303    0.52636371011985
C         0.28267182250668   -0.23753257551870    3.73354683517438
C         0.45368447527079   -0.16473220065689    2.24765346442408
C         0.80402555016417   -1.30195179746738    1.48783444493818
C         1.11943181567159   -1.19363203813537    0.10604056473789
C         1.00975259625386    0.03258282621368   -0.55505609901233
C         1.39570103996723    0.20710887834710   -2.00190531237987
C         2.90083049119585    0.49868351371125   -2.06873960424793
C         1.03361395150117   -1.00090416049114   -2.86447904744196
C         0.64243212398326    1.18417458897425    0.21016606155281
C         0.40825985762933    1.09600817140984    1.58006853227702
H         0.12785808134381   -1.26102529245711    4.06322566963258
H        -0.54858270103036    0.38043530903505    4.06506630698102
H         1.18699992682316    0.13855251857187    4.21213499442499
H         0.95160265480117   -2.25418974491198    1.98698300248084
H         1.47132275623754   -2.06763460404038   -0.42602618673731
H         0.85495018215923    1.07662039050180   -2.39330464886917
H         3.46738084538657   -0.34706444398017   -1.68598188062402
H         3.19410128547746    0.67229857823484   -3.10034786959377
H         3.15379385091042    1.38063613481745   -1.48462109722156
H         1.67420987940113   -1.85256920665105   -2.65285791789349
H        -0.00176412720471   -1.29023247944247   -2.69548015295344
H         1.15056850777230   -0.74823734862473   -3.91509907818360
H         0.63889183422736    2.15220245086190   -0.27992227821913
H         0.23213461959734    1.99422814758330    2.16208754028927
C        -4.18507942567189   -2.90055109722636    3.12142589921817
C        -3.19834885875428   -2.04871970898638    2.33885827530615
C        -3.60925237511718   -0.59663130177868    2.14193547041458
C        -4.81213750698295   -0.09532799454846    2.61451768221098
C        -5.09987154347050    1.25283509776744    2.46764570801664
C        -4.16014310409425    2.06588952987565    1.85582482158927
C        -2.99033405448585    1.49407345690778    1.39144182753878
N        -2.71504834474051    0.19456684423945    1.52274282311614
N        -2.92264526835384   -2.63143728627386    1.03617529506727
C        -3.39132188720207   -3.73104705312918    0.41818753332782
C        -2.64690185411041   -3.83973313246786   -0.75072425534334
C        -2.71643952024137   -4.88490971414177   -1.76263868083699
C        -3.08501305286541   -6.15329390968012   -1.36656655323966
C        -3.14022922172036   -7.21076167392541   -2.27996983343720
C        -2.81671464949453   -7.00195806283022   -3.59166768874704
C        -2.44577096486875   -5.71896694747617   -4.04448126169959
C        -2.11813788648204   -5.49141908087507   -5.39819893574797
C        -1.77814470436730   -4.24347003293724   -5.83756384636972
C        -1.76917974536305   -3.16463799556386   -4.94119395315211
C        -2.07740279476242   -3.35289297913643   -3.62252664410847
C        -2.40323434986676   -4.63277087187608   -3.12839109028116
N        -1.77389288823422   -2.80713347308432   -0.76463978380503
N        -1.95578295133372   -2.11049141152672    0.29031934738244
H        -4.32403066838598   -2.47744239263409    4.11081263100683
H        -5.14463188653660   -2.95838283100571    2.61691678450675
H        -3.78617031035594   -3.90391997857454    3.23874040725335
H        -2.22986696088285   -2.03041741682341    2.87069794915144
H        -5.52011604489199   -0.74685247494565    3.09568592736874
H        -6.03317787057040    1.65522535199764    2.82528428625368
H        -4.32710382571146    3.12163284615424    1.72596205157827
H        -2.25189530717338    2.09687502327338    0.87567472761270
H        -4.18806033818703   -4.33239324342201    0.79692636776751
H        -3.31262941814840   -6.34827503119006   -0.33035031293288
H        -3.42845211229716   -8.19260313518853   -1.93709569706438
H        -2.84027375645604   -7.81489303033534   -4.30239482675047
H        -2.14660165294387   -6.32691939224488   -6.08270754243796
H        -1.52679400277370   -4.07775778718335   -6.87459548263171
H        -1.52106683566319   -2.17751881997485   -5.30212396708786
H        -2.07753622604793   -2.51348088398451   -2.94591479653100
Cl       -2.28696950493188    0.27605969853603   -1.40852761714479
