56
 energy: -87.939546491613 gnorm: 0.000141067129 xtb: 6.4.1 (afa7bdf)
Ru       -1.11411379200673   -0.94519331470895   -0.22093691906782
C        -1.21045653177513   -0.22038758182761    3.16474186594734
C        -0.50046954700596   -0.16863595598901    1.84803167017233
C         0.39754037084454   -1.18627068670590    1.45639665966423
C         1.17644083556926   -1.05769599210734    0.27519084522244
C         1.00567254603167    0.03543631832689   -0.57776506044699
C         1.84220486687442    0.21493242987569   -1.81965536681021
C         3.20872984199858    0.78362897703498   -1.41704269816541
C         1.99853785873163   -1.08701230840720   -2.60634375006465
C         0.09634006328633    1.06592660886232   -0.18124018216392
C        -0.60376303684537    0.98860527289914    1.01960514671527
H        -1.23560228653250   -1.23235835706047    3.55862358447520
H        -2.22536721141396    0.16096116524658    3.08049697185330
H        -0.67783174544001    0.40769796627790    3.87899924416784
H         0.58759281832987   -2.01875942280363    2.12578188714101
H         1.91986528269438   -1.81055595077278    0.04842132847938
H         1.33916157208024    0.94285771105317   -2.46639213177890
H         3.73768867053492    0.08485749327902   -0.77343106171106
H         3.80955437591858    0.95737054336966   -2.30553799599130
H         3.09590208264299    1.72721874135190   -0.88781817821833
H         2.64422927892885   -1.78990857432327   -2.08714989679428
H         1.02454099959903   -1.54895120249893   -2.76293027389279
H         2.43961070432753   -0.87725494583852   -3.57742212442900
H         0.02834156599128    1.96068452380632   -0.79142075989021
H        -1.20501077871585    1.82617617466478    1.35578957790486
Cl        2.36230255022260   -8.59078379677369   -4.71623849438359
C         1.42613743125975   -7.46425915839276   -3.76774500656712
C         1.83761716210844   -6.14411242217989   -3.67349531224179
C         1.09211819579055   -5.25743328301322   -2.92216159449116
C        -0.06233028868818   -5.67981518364526   -2.26345544082290
C        -0.82167243002893   -4.72762230326158   -1.47228664157211
C        -1.98511948353666   -4.89509704247472   -0.73213053457473
N        -2.22915442251617   -3.69052120989196   -0.18207873743545
C        -3.21026736246394   -3.28993388248182    0.79412517573666
C        -3.88615192596644   -1.99040617419328    0.42072372554318
C        -5.26973586750341   -1.89207615924712    0.46378204621402
C        -5.88047318772860   -0.67933008247969    0.18906489688159
C        -5.07505414591377    0.40491470028785   -0.12299714267309
C        -3.70475099317088    0.22864702293179   -0.15993395252124
N        -3.11336609906738   -0.93798333336938    0.10976128242972
N        -1.27658319740402   -2.84949833843434   -0.56465144424772
N        -0.43705774389140   -3.43727222104149   -1.32463652999636
C        -0.45964117842750   -7.01178882768739   -2.37120954791726
C         0.28174252034225   -7.90407402490916   -3.12200467783163
H         2.72957204175150   -5.81941884428949   -4.18375695053076
H         1.39319802235362   -4.22569625211475   -2.84121965805089
H        -2.61140968135919   -5.74538523104881   -0.57034489393839
H        -3.94952063620596   -4.08448138256842    0.89382916768750
H        -2.69900536190275   -3.15317014461188    1.75884717556500
H        -5.86028442144971   -2.75795388290235    0.71307961369685
H        -6.95332462794757   -0.58399189215787    0.21399749327455
H        -5.49486883431407    1.37117506554205   -0.34559933143924
H        -3.05394418857325    1.04943787584048   -0.43763100515214
H        -1.34813219586651   -7.36018477393293   -1.87149077657330
H        -0.02208562673261   -8.93445992249559   -3.20818611321389
Cl       -1.77436882781374   -0.67282452797004   -2.50746317317768
