56
 energy: -88.116568548890 gnorm: 0.000141434209 xtb: 6.4.1 (afa7bdf)
Ru       -1.11027051049537   -0.96280612529459   -0.26750733096237
C        -1.19626845884641   -0.20817952487112    3.11285917029548
C        -0.49115516482351   -0.16716599950737    1.79325852035109
C         0.40718262446885   -1.18672012264386    1.40745750895783
C         1.18227782847558   -1.06705252776168    0.22276372022976
C         1.00708712799351    0.01836017741477   -0.63911546512646
C         1.83967812477679    0.18933677065446   -1.88482311457601
C         3.20393808240068    0.76968103742382   -1.49122175024539
C         2.00139618862848   -1.11964453800233   -2.65860697936600
C         0.09677333855633    1.05040845413876   -0.24895776925622
C        -0.59943370566116    0.98228425812778    0.95470417357624
H        -1.21965837558489   -1.21678247995402    3.51534723713737
H        -2.21151819876407    0.17234493773700    3.02928584218342
H        -0.66102821758149    0.42592666591746    3.81981190494951
H         0.60088243908550   -2.01296703497211    2.08350892715691
H         1.92690839456291   -1.82013302895443    0.00074462200026
H         1.33116397885611    0.90772857406810   -2.53787663895111
H         3.73813616225030    0.08062295321814   -0.84147123624205
H         3.80183830708931    0.93737844623508   -2.38283046203645
H         3.08701035262537    1.71810766711045   -0.97167259589405
H         2.65260778570057   -1.81344830915577   -2.13400666457877
H         1.02953673163657   -1.58849243211245   -2.80801063749919
H         2.43881538280378   -0.91736530502632   -3.63291587594721
H         0.02521441053602    1.93960058283301   -0.86680332845343
H        -1.20120299748588    1.82167744812991    1.28535549297418
F         2.09378844674852   -8.36770935009247   -4.55586328114160
C         1.37142432026361   -7.48396242171189   -3.80874359584268
C         1.81316323662403   -6.17763863816918   -3.70988666304450
C         1.07602255058361   -5.29026784700770   -2.95089167047477
C        -0.08577377839028   -5.70713159367187   -2.30068208418734
C        -0.83500425686540   -4.75116470031673   -1.50326395839853
C        -1.99489174409388   -4.91200639122053   -0.75646755404395
N        -2.22925634596486   -3.70567152934802   -0.20632170658268
C        -3.20462563910379   -3.29737570887180    0.77247857672862
C        -3.88140096285158   -2.00031069834436    0.39207722281981
C        -5.26463659199470   -1.90018297030035    0.44094865948230
C        -5.87536842328573   -0.68930094357250    0.15802015999898
C        -5.07034701809874    0.39097616517545   -0.16849305515007
C        -3.70038674891046    0.21294130703143   -0.21029535364909
N        -3.10897715136914   -0.95163676301595    0.06797661078849
N        -1.27477615058510   -2.86976323624519   -0.59539892374504
N        -0.44241476262075   -3.46299896599514   -1.35914371143916
C        -0.50472565495942   -7.03176986283286   -2.42088697527352
C         0.22448802278335   -7.92865739087851   -3.17846477996777
H         2.71287253948882   -5.87541341989816   -4.22030249891808
H         1.38867872797613   -4.26335879040654   -2.85692285823022
H        -2.62433232199867   -5.75894489781851   -0.58918257570060
H        -2.68772120114673   -3.15357437260082    1.73312616992834
H        -3.94380972114903   -4.09063782088412    0.88233562157722
H        -5.85487044055332   -2.76309822609759    0.70102972697979
H        -6.94797401286964   -0.59251777064167    0.18748823034800
H        -5.49022176813847    1.35550416527116   -0.39835231692643
H        -3.05008071767597    1.03025946029793   -0.49916143067924
H        -1.40001121502570   -7.36993906742180   -1.92681734553707
H        -0.08073949189018   -8.95664037819114   -3.28590406661440
Cl       -1.77489635614186   -0.71329388698839   -2.55541384377575
