66
 energy: -104.289843265461 gnorm: 0.000311660986 xtb: 6.4.1 (afa7bdf)
Ru       -1.01507133245436   -1.58451241508346   -0.08787540134078
C        -0.71515127692805   -0.60956972909979    3.23809765566540
C        -0.11798129579571   -0.77509877358406    1.87684345801571
C         0.56532106353539   -1.95642446753987    1.51270505057452
C         1.25352112848901   -2.04575882968251    0.27284911665519
C         1.20321027645651   -0.99810397549242   -0.65282550652392
C         1.97174976767177   -1.04545828106254   -1.94955908924623
C         3.44410257789425   -0.72633197881064   -1.66018038836245
C         1.82853092165280   -2.39279896366741   -2.65787377106928
C         0.50663890323013    0.19497380346776   -0.28376459001912
C        -0.10345431569729    0.31946993256032    0.96174239074096
H        -0.89062703723243   -1.57056857548171    3.71255313618057
H        -1.64673266021482   -0.05041267204115    3.19604088138388
H        -0.01893993954831   -0.04724112751576    3.86080325687937
H         0.67212301781446   -2.75754534721173    2.23629437374903
H         1.84327178958250   -2.92797593502479    0.05863212229928
H         1.57073871280713   -0.27034759705739   -2.61205232695306
H         3.87754578521323   -1.48227787079709   -1.01005151664161
H         4.00439269153456   -0.70896049558036   -2.59076430445998
H         3.54357546107751    0.24452968757748   -1.18009693566975
H         2.36133341554916   -3.17848657171922   -2.12933421877372
H         0.77654744420462   -2.66597160151602   -2.73112173641954
H         2.23759847080125   -2.32413225263681   -3.66254755305582
H         0.53697831003844    1.04355957521637   -0.95920592795508
H        -0.53102120555648    1.26800864893815    1.26706752860900
C         1.57453591983556  -11.63741462971934   -6.18828866472869
O         0.41871200425199  -11.77820946547411   -5.38595860727263
C         0.01726217594633  -10.71886598833597   -4.62958760902165
C        -1.14004785350505  -10.95578932382086   -3.84946383988275
C        -1.64680816521688   -9.98098759130156   -3.04621363360923
C        -1.03243476784772   -8.70980266005189   -2.97267217980956
C        -1.53480375375898   -7.68639199847511   -2.15228103593112
C        -0.91878775795377   -6.45488065372073   -2.10115971233514
C        -1.42504399076639   -5.38983823016243   -1.25593099345381
C        -2.51663499607981   -5.36620423588632   -0.39556949502689
N        -2.50979837519132   -4.13434642301801    0.14893319631127
C        -3.32166293524473   -3.56719214433081    1.19511388100435
C        -3.83981578333790   -2.19914816983131    0.81673195313895
C        -5.19111001360972   -1.91558081875442    0.94303732173260
C        -5.64381725873345   -0.63602750069257    0.64864497055381
Br       -7.49936599949510   -0.20575922900329    0.80587913695661
C        -4.72534764257110    0.32328174020134    0.24170763337248
C        -3.40022083534992   -0.04724768713622    0.12987979439554
N        -2.95157738587627   -1.27587656756066    0.40889407463386
N        -1.48334193955523   -3.45659162056954   -0.34951746233384
N        -0.83116172546948   -4.17531048488820   -1.17793611340793
C         0.23265487858675   -6.22000739756411   -2.88486088439278
C         0.73856167245917   -7.19996727200574   -3.68690394206689
C         0.12664060466457   -8.47071159789295   -3.75628355831640
C         0.63673835477416   -9.49417371127980   -4.57955037426389
H         1.69808441467727  -12.59553358101475   -6.68787636992207
H         1.44324796599892  -10.84906900306792   -6.93413046901582
H         2.45497319514082  -11.42614512720762   -5.57580021288842
H        -1.59581225900191  -11.93081702147377   -3.91944084528868
H        -2.52932003629484  -10.17089549219759   -2.45448336412809
H        -2.41621426228862   -7.89001588099359   -1.56475903554757
H        -3.24542299803811   -6.10719814087020   -0.14891958828708
H        -2.70189103988991   -3.46660415042228    2.09893408350186
H        -4.14979331810564   -4.24388370176273    1.40462237069328
H        -5.88084436466162   -2.67833510568357    1.26667536082931
H        -5.03076253642635    1.32867416665663    0.00465933707983
H        -2.67003525742888    0.67197225182699   -0.22084500387083
H         0.69599561284780   -5.24808312510774   -2.83609444713291
H         1.61869370896207   -7.01609086708201   -4.28501974940634
H         1.51903975109377   -9.28472984680454   -5.16356741261424
Cl       -1.83661968166416   -1.27145390075011   -2.31130821443374
