63
 energy: -97.887231476523 gnorm: 0.000252576984 xtb: 6.4.1 (afa7bdf)
Ru       -0.81079524879743   -0.72055713221116   -0.16252993605936
C        -0.60807231546576   -0.53150814071836    3.28977516270813
C        -0.07036237782984   -0.20167732870491    1.93337416759030
C         0.87028587559747   -1.04448436225834    1.29719911348277
C         1.48696551886677   -0.65933357561116    0.07774703063677
C         1.12464201680561    0.53096914916092   -0.56459453109864
C         1.80993318688100    0.99142585919176   -1.82756368057966
C         3.17640371480708    1.58264588037410   -1.45866792432611
C         1.95415902805970   -0.13693020673289   -2.84936191503022
C         0.16966536572802    1.38105651756294    0.07761704002875
C        -0.38514686935813    1.04200276812188    1.31067998165064
H        -0.58893252794688   -1.60323211270920    3.46770164730545
H        -1.62473778985072   -0.16703901183856    3.41274550838627
H         0.01444698656009   -0.04984244135632    4.04417408984553
H         1.20882820585205   -1.94222273909675    1.80324480154144
H         2.26684892352113   -1.28264666909735   -0.33946372701908
H         1.19840608357640    1.78059159613393   -2.27928692409945
H         3.81047098419003    0.82528764267751   -1.00481664297615
H         3.66772177226162    1.95449077052316   -2.35338203972968
H         3.06430102114478    2.40773861439425   -0.75905276227590
H         2.67353043592759   -0.88189500289136   -2.52292289056274
H         0.99079947899611   -0.61985293779204   -3.00923100597538
H         2.29462938710650    0.26960536281124   -3.79780879256538
H        -0.05510188273211    2.34428497888407   -0.36951358514304
H        -1.01735862295493    1.75220134767686    1.83149349058621
C        -6.23449211058005   -4.36218058026433   -0.36498608824458
O        -4.87781635003034   -3.93904624407020   -0.45739684279260
C        -4.55021867743184   -2.73105062398731    0.01786972593840
C        -5.41507063501832   -1.82186733452615    0.62661049161407
C        -4.91036201439994   -0.60653247207918    1.05863621532878
C        -3.56921779485605   -0.30939842377597    0.88768125251562
N        -2.72914574916469   -1.16775934907215    0.31862043223108
C        -3.20043250782397   -2.35235050751287   -0.11718196281420
C        -2.17629208176919   -3.15873508348138   -0.73014208385970
C        -2.02544753412387   -4.40412201091172   -1.30299427722054
N        -0.71850563810266   -4.47025105080133   -1.64508556324722
C        -0.02763361958488   -5.53891781424459   -2.23737123150381
C         1.36085356199861   -5.54051635961143   -2.19373006711584
C         2.08332229236780   -6.58496931029214   -2.75044874218881
C         3.57457361082824   -6.59122607094961   -2.69641573505218
C         1.36861241066008   -7.62182033672071   -3.34898438667166
Br        2.34778899090070   -9.09374330197133   -4.11919410228476
C        -0.02351310003347   -7.63895270908845   -3.41676689715114
C        -0.76032786413042   -8.75886363855983   -4.07374173414780
C        -0.71596872951444   -6.57741090002575   -2.85098019242603
N        -0.08934434232093   -3.34951124930550   -1.31059392929143
N        -0.94857118789569   -2.56720002604218   -0.76872016660107
H        -6.25662731928070   -5.35209944307453   -0.81290196827874
H        -6.55420362454210   -4.42380395493780    0.67641970097147
H        -6.89166305681967   -3.69334163280678   -0.92303275052244
H        -6.45999219069301   -2.04692999154231    0.75543625238758
H        -5.55960009387556    0.11431700954385    1.52619104538717
H        -3.16601708341123    0.64288311954512    1.19942402088438
H        -2.73650277964723   -5.18615461659680   -1.45234988948234
H         1.87318235893369   -4.72001652570972   -1.72086929827601
H         3.98962683824831   -6.62691748408668   -3.70288519617531
H         3.93024135082907   -7.47435917011088   -2.16699072551113
H         3.94598715671140   -5.70477488400349   -2.19380535962954
H        -0.53264730548651   -9.70260343473670   -3.57947424191888
H        -1.83199374189573   -8.59318036824025   -4.03817754861599
H        -0.45397674154975   -8.85498395433123   -5.11466145901610
H        -1.79075148588108   -6.57103592064078   -2.91370192775844
Cl       -1.78919956262442   -0.15302617746744   -2.26724244575720
