66
 energy: -97.423293125489 gnorm: 0.000332618989 xtb: 6.4.1 (afa7bdf)
Ru       -0.80416308298905   -1.18279716785624   -0.69106342441428
C         0.66569411740499   -3.35673181306880    1.70484052475196
C         0.68963109149128   -2.08880380875825    0.92073429568642
C         1.27283447924821   -2.05576313727124   -0.37417339619410
C         1.45655901057974   -0.83908546291218   -1.06225743684965
C         0.99728231979499    0.38311974222265   -0.52642022465808
C         1.30268300451440    1.71328589164634   -1.17121907020727
C         2.71320337684896    2.14623972949463   -0.75115791319910
C         1.17748998990793    1.66793122792381   -2.69477361195289
C         0.31845152331799    0.32533149606473    0.71038922150693
C         0.18189346478058   -0.88152673231361    1.43730054297137
H         0.37654979841515   -4.19668613575392    1.07545850892482
H        -0.00584765677665   -3.28881804001918    2.55608852392552
H         1.67013772561946   -3.55838024356882    2.07734052759978
H         1.68965001110323   -2.96724993358309   -0.78857363575140
H         2.00057248629233   -0.84582126003089   -1.99942712242406
H         0.58738914365900    2.44830842464278   -0.78672386779819
H         3.45208736449363    1.42795536410542   -1.09891089153435
H         2.94381735084833    3.11409320223912   -1.18702385478977
H         2.78871194980958    2.22581555800268    0.33046824817042
H         2.02058886938511    1.15032680012413   -3.14560175781388
H         0.26254788267370    1.15700698556946   -2.99197766520146
H         1.15615480739626    2.67779917490419   -3.09424979104547
H         0.00058887717755    1.25218685692136    1.17764811292598
H        -0.23458571764792   -0.84840081008073    2.43743197126854
C        -2.65367124037999  -11.10997790096988   -2.73271083462327
O        -1.64574652579727  -10.12018934005100   -2.81881022803636
C        -1.90661875505944   -8.87349849977666   -2.34609296713977
C        -0.86910257467548   -7.94496577687978   -2.47987500308480
C        -1.03042899679537   -6.65237926278296   -2.04243935638202
C        -2.23149476764919   -6.24579676497645   -1.45481679039125
C        -2.38523611181385   -4.87311002155901   -1.01590273241242
C        -3.47830389571516   -4.22231543367886   -0.45224648325212
N        -3.07312972091490   -2.95571825506014   -0.25338082497290
C        -3.66630932928055   -1.85450683243277    0.49218282977084
C        -3.48617215468723   -2.15656819116046    1.98193591903880
C        -5.14603188262554   -1.70312287355714    0.13315754559665
C        -2.92518050925185   -0.56791513474727    0.10187852054897
C        -2.78082302792420   -0.19561781983411   -1.27365049347591
C        -2.48694378464759    1.15859414053742   -1.55582785238480
C        -2.33533028365064    2.05111993252116   -0.52139885881615
C        -2.55605462619024    1.59371047090478    0.78722532209551
N        -2.85216467056880    0.35316361107497    1.08326190746911
N        -1.81467187752736   -2.85236557878972   -0.65667379687426
N        -1.38599752749428   -3.96466233938506   -1.10945246117520
C        -3.25949946887903   -7.17438547569179   -1.31752007590843
C        -3.10404265106674   -8.47532767682153   -1.75726180087367
H        -2.21894676823324  -12.00220215129850   -3.17755415334082
H        -3.54338663607014  -10.81719423835157   -3.29589385481527
H        -2.92024995243986  -11.31253199764181   -1.69240889338298
H         0.05020672253708   -8.27295640151173   -2.93811424814570
H        -0.23530574997527   -5.93360041320461   -2.15617324637478
H        -4.45759152349625   -4.56789968504338   -0.20382308812695
H        -3.85908117661286   -1.32060958163056    2.56230762460956
H        -4.03197536385637   -3.05591849387696    2.25008595920730
H        -2.43202870745788   -2.29668550362925    2.20859701234899
H        -5.53440016195587   -0.80458966407327    0.60234785483075
H        -5.71315715319491   -2.55358824120836    0.49848554657690
H        -5.27901194632565   -1.62081508740464   -0.94226245103571
H        -3.20558100992651   -0.80882666592704   -2.07095794940598
H        -2.44982568711503    1.48415642684928   -2.58515977047041
H        -2.13130103072205    3.09258562626309   -0.70657697958841
H        -2.53178300074962    2.27656436589860    1.62519203124053
H        -4.19537340046390   -6.88759748833038   -0.86589790605745
H        -3.91938618418783   -9.17028346961627   -1.64001245895880
Cl       -0.82475207827996   -1.57688622468100   -3.04804332788573
