56
 energy: -91.987663752723 gnorm: 0.000134468215 xtb: 6.4.1 (afa7bdf)
Ru       -1.11960216461318   -0.96261055309184   -0.27670303376303
C        -1.22933260692605   -0.17861080720775    3.09409786147784
C        -0.51054554833663   -0.14768933141262    1.78224216708925
C         0.38890178670228   -1.17207007902359    1.41247453852506
C         1.16588118336144   -1.06686506907583    0.22748810362955
C         0.99758098453830    0.01313692050531   -0.64472800674845
C         1.83378377847149    0.16636776013880   -1.89040893757577
C         3.20658766649812    0.72769002974869   -1.49873301508789
C         1.97523430307815   -1.14953950206705   -2.65659154392344
C         0.09494136022308    1.05519699246061   -0.26328454062241
C        -0.60929161648815    0.99683686394700    0.93530196651616
H        -1.24968027318616   -1.18234704758421    3.50824621630912
H        -2.24617483166962    0.19396577983857    2.99485767791208
H        -0.70662173375076    0.46801864878997    3.79909262229052
H         0.57863583779356   -1.99153133355153    2.09767791878881
H         1.90877207650270   -1.82425598803212    0.01325334079080
H         1.33670428928127    0.88931324444293   -2.54713317263708
H         3.73002235441484    0.03372309371088   -0.84570155985111
H         3.80715767465654    0.88221223405121   -2.39092044282729
H         3.10410813197666    1.68032589469415   -0.98380063054002
H         2.61682320082093   -1.84944616149895   -2.12866310389362
H         0.99613528903168   -1.60451209952254   -2.80138222460212
H         2.41426324508198   -0.95906812968171   -3.63250252403971
H         0.03179569450704    1.94093323933134   -0.88675187851387
H        -1.21073645470808    1.83995231058790    1.25654845084882
Cl        2.28633560067857   -8.65042281921271   -4.76777529187495
C         1.36739407777069   -7.51526129271446   -3.81178615595203
C         0.23014001816212   -7.94730983283006   -3.14845179903050
C        -0.49776167437139   -7.04831828913629   -2.39241919153374
C        -0.09398100222460   -5.71732315199362   -2.29712854463635
C        -0.83971484975545   -4.75764857791280   -1.50203458338543
C        -1.99270935026311   -4.91682404330027   -0.74317800907984
N        -2.22642073186196   -3.70765553450507   -0.19926789145064
C        -3.19439864141414   -3.29734910785279    0.78673968142381
C        -3.88008549497368   -2.00616646164427    0.40513831004364
C        -5.26395797955824   -1.90762959679786    0.46180568328359
C        -5.88825686704932   -0.70696352339543    0.17090693950129
C        -5.08318506261131    0.37074012128691   -0.17452880324095
Cl       -5.76644382446451    1.91081315622472   -0.56587354807454
C        -3.70644999792220    0.20413479935289   -0.22014809563548
N        -3.11433184546456   -0.95585955244661    0.06635664699649
N        -1.27783765139398   -2.87162015650134   -0.60343072834938
N        -0.45108625793629   -3.46685951548134   -1.37070169710263
C         1.05326895468960   -5.30275830218874   -2.97320766076888
C         1.78522277366761   -6.19628867869479   -3.72976037939275
H        -0.07860439290660   -8.97696065279832   -3.22538023896481
H        -1.38073426159356   -7.39088083037678   -1.87921245393634
H        -2.61700062706500   -5.76534667058541   -0.56480201398227
H        -3.92916981409340   -4.09306658637469    0.90820210592418
H        -2.66928645340373   -3.14599229991084    1.74181556968842
H        -5.85394130481780   -2.76725448310116    0.73434700073806
H        -6.95997629509170   -0.60798029629406    0.20457946777557
H        -3.07201788359243    1.02773192819749   -0.52334406359647
H         1.35945217047380   -4.27188927331375   -2.90165161017169
H         2.67156880936184   -5.87789473977537   -4.25357131471046
Cl       -1.79294276821032   -0.70076864646473   -2.55741858007005
