68
 energy: -100.774173037384 gnorm: 0.000287887208 xtb: 6.4.1 (afa7bdf)
Ru       -1.16072353511652   -1.36480054359990   -0.13100545160611
C        -0.95740540968795   -0.32304182727558    3.17210029274328
C        -0.31722938607106   -0.51777253437258    1.83402318605763
C         0.37166246825782   -1.70939829504136    1.51533362345097
C         1.09572772705097   -1.82747410257183    0.29831385987405
C         1.07310570995188   -0.80137080667264   -0.65152251759996
C         1.86864489183955   -0.88062444202245   -1.93032681722057
C         3.32426475941547   -0.50199281587500   -1.62848464418157
C         1.78341748518304   -2.26055794988714   -2.58259920884324
C         0.37712033141583    0.40469799017224   -0.32532603652059
C        -0.26474038000606    0.55952024230301    0.89969289679126
H        -1.15392713104882   -1.27411978038143    3.65832137154569
H        -1.88392707005184    0.24004880200483    3.08860978863014
H        -0.27926034572027    0.24785255682542    3.80680257104582
H         0.45405233290815   -2.49563868627301    2.25824250532817
H         1.68669030882355   -2.71658093573440    0.11938957810572
H         1.45637233545654   -0.14765459225722   -2.63305370162695
H         3.76306443903916   -1.20594994183413   -0.92570295430648
H         3.90555855190510   -0.52183168693267   -2.54605413489821
H         3.38526893844666    0.49736255623975   -1.20396824691082
H         2.34150434436706   -3.00256006971609   -2.01804560989657
H         0.74332373143737   -2.57659519005299   -2.65338743160701
H         2.19945433003308   -2.21746004500705   -3.58579129994786
H         0.43129159257237    1.23852813631101   -1.01748638573212
H        -0.69444212881646    1.51687738492762    1.17301412581464
C         2.01255673107887   -9.76117681028159   -3.97351385296431
C         0.58117606345265   -9.47660890482219   -4.45221507425809
C         0.60510580600252   -9.01065087344615   -5.91550440269760
C        -0.21398501136774  -10.78315061529709   -4.37793997135724
C        -0.01906206100074   -8.37391542946835   -3.59666116550230
C         0.61131947970026   -7.13120019576299   -3.53673118206221
C         0.10539827120113   -6.10164315060759   -2.77323598973140
C        -1.06369742365884   -6.27838299604674   -2.03473986821415
C        -1.58037126782279   -5.18971522935908   -1.22694365646103
C        -2.69299666025963   -5.13490373405195   -0.39577719697449
N        -2.68374478361521   -3.89283050757034    0.12473318652094
C        -3.50886713310003   -3.29405068675031    1.14313408183985
C        -4.00985027575547   -1.93086924628140    0.72626706198356
C        -5.36026731155368   -1.62414324883781    0.82844713976018
C        -5.81449896091048   -0.35677297496139    0.50295550389323
C        -4.86025017148394    0.55271791163304    0.08040797653131
F        -5.21357883045280    1.80726464170403   -0.24872529116024
C        -3.52703243227898    0.19563750526927   -0.01365955565590
N        -3.10477811185808   -1.02915309315079    0.30677236157127
N        -1.63607719163984   -3.23909414649667   -0.35999426287907
N        -0.97203485835353   -3.98191804915725   -1.15746742015320
C        -1.70485678781793   -7.51246057766149   -2.09106762849241
C        -1.18734429006660   -8.53810634032717   -2.85992451411745
H         2.44951357755635  -10.56297181753657   -4.56435178507569
H         2.64694611588643   -8.88514013963893   -4.07109127305146
H         2.00668704703529  -10.06675684850773   -2.92945462256770
H         1.20135140430579   -8.11064128949300   -6.03621761080391
H         1.02939447046692   -9.78749895550416   -6.54754040290975
H        -0.40510640164976   -8.79985452030416   -6.26053238659629
H        -0.24777210366338  -11.16405446717179   -3.35998028324979
H         0.26757805156786  -11.53423760129106   -5.00047539514593
H        -1.22842811189345  -10.64730253758099   -4.74520482441086
H         1.51685580272407   -6.95904495938917   -4.09765911634726
H         0.60603420355134   -5.14726270442781   -2.74146510771512
H        -3.43754601605529   -5.86177339748218   -0.15394836134919
H        -4.34662286725347   -3.95891522936838    1.35225309218958
H        -2.90268848188075   -3.18131481182196    2.05460424821568
H        -6.05777273036078   -2.37347667652995    1.16438052802949
H        -6.85384259512063   -0.08130256724490    0.56542617270554
H        -2.80239466312321    0.91125505334343   -0.38232008546948
H        -2.61380725704729   -7.68000143546472   -1.53550173639933
H        -1.71486007401107   -9.47713745170262   -2.87616735540778
Cl       -1.91457005106584   -1.09693631442063   -2.38495533253842
