59
 energy: -91.278704125352 gnorm: 0.000323359782 xtb: 6.4.1 (afa7bdf)
Ru       -1.24183676950195   -1.02446300455105   -0.10818521630310
C        -1.31364247039952   -0.39710175486055    3.29533124489416
C        -0.58772651919702   -0.35286302973900    1.98774237875444
C         0.24001527733058   -1.41943356954802    1.57073383580304
C         1.03303145904700   -1.30925155738345    0.39685859579849
C         0.94648709173806   -0.17910398832537   -0.42183168218516
C         1.80317036116708   -0.02012974255586   -1.65288920041227
C         3.21072550742298    0.41457025029738   -1.22524065759695
C         1.85257609301758   -1.29807911583565   -2.49097231537028
C         0.11275193754242    0.90171423562840    0.00534620156978
C        -0.60075468468210    0.83575735294037    1.19808394134169
H        -1.43728306052710   -1.41840522163828    3.64343635548176
H        -2.28705538306434    0.08203298670021    3.22269661804818
H        -0.73185367008046    0.14604768381238    4.04041111156114
H         0.36803120632939   -2.28183824911963    2.21642052816135
H         1.72469393616701   -2.10433203158592    0.14964421266998
H         1.36675420867480    0.77297709702296   -2.27072671876604
H         3.67836967072040   -0.35384711770174   -0.61461940976170
H         3.82609656700906    0.57799483787731   -2.10562242253322
H         3.17440146586096    1.33951660211126   -0.65420923950205
H         2.42699432900520   -2.07677212806840   -1.99690996304720
H         0.84303567026417   -1.66536805779056   -2.67214406116832
H         2.32051497009712   -1.08975207476786   -3.44971380444027
H         0.11392600216660    1.81830529625691   -0.57524139444739
H        -1.14136262564417    1.70378790630571    1.55891988784006
C        -0.89155627330273   -9.29145593578719   -3.60000201661048
C        -0.37739922444682   -7.89337048494927   -3.44458892675777
C         0.75017866637572   -7.47674612878801   -4.14541973532850
C         1.22116627002553   -6.18097551473815   -4.02120450506643
C         0.57584938534899   -5.28140680893322   -3.19484898283697
C        -0.55441234579868   -5.68124237859919   -2.48457137836290
C        -1.22176898338023   -4.73425948747230   -1.60852651302273
C        -2.37774791965663   -4.87040398532037   -0.84927936222249
N        -2.52114199758060   -3.69379442718107   -0.21022301184640
C        -3.45460678346097   -3.28670567253801    0.80956077123647
C        -4.06290218457155   -1.93777251939441    0.50424502194151
C        -5.44047600024289   -1.76873630409944    0.54791212875287
C        -5.99791751520198   -0.52065004643402    0.32382791751359
C        -5.11517228299620    0.51296313713376    0.06184650938279
F        -5.57047275217385    1.75817913522035   -0.16007475176543
C        -3.75007742016124    0.29194510003651    0.02138161919985
N        -3.22863914252527   -0.91682183442763    0.24026857712117
N        -1.51876170700349   -2.89798753951029   -0.56027614322493
N        -0.74215109854800   -3.48832843741799   -1.38286294634355
C        -1.02208025617625   -6.98735823047430   -2.61686750519261
H        -1.54954736012321   -9.56093552975873   -2.77861374126804
H        -0.06866313372413  -10.00120208074695   -3.64223539411369
H        -1.45245958187594   -9.37815277477733   -4.53033403917531
H         1.26118912916550   -8.17527615598691   -4.79179861774806
H         2.09744044930974   -5.87352044331883   -4.57188716856583
H         0.93109839428026   -4.26893665741784   -3.09210849433991
H        -3.06118499445481   -5.68311622972492   -0.73233233209422
H        -4.23384891992411   -4.04382939207944    0.89474413829888
H        -2.91259716474764   -3.21958352847115    1.76488300357134
H        -6.07891216346736   -2.61065821108764    0.75855338558072
H        -7.06126023554344   -0.35016049244461    0.34399143958277
H        -3.07948515025184    1.10713068604309   -0.22148509074252
H        -1.89470881258144   -7.30681701144364   -2.06913163257860
Cl       -1.90207446106378   -0.57557442059351   -2.36343404933351
