56
 energy: -88.106933372964 gnorm: 0.000168546657 xtb: 6.4.1 (afa7bdf)
Ru       -1.05742771050002   -0.71164428038122   -0.21501356307512
C        -1.11938329904071   -0.07301690034503    3.19340135340400
C        -0.42460545785591    0.01812341405944    1.87115280737490
C         0.47582842069677   -0.98283111126467    1.44448835395607
C         1.23384785698499   -0.82307990182958    0.25384448624844
C         1.04688511129322    0.29290454955474   -0.56802029725375
C         1.86345819449902    0.50814844461762   -1.81710535294773
C         3.21686375189742    1.11240476971393   -1.42101977896356
C         2.05021301084211   -0.77994003598609   -2.61959852958208
C         0.14521460108197    1.31303748948281   -0.12887200882236
C        -0.54219536732654    1.19740256340209    1.07529582266759
H        -1.13964993018415   -1.09601307652524    3.55771417148482
H        -2.13474810561875    0.31138046987375    3.13326369791197
H        -0.57786143609399    0.53371115230074    3.91933593497783
H         0.67907788512709   -1.83074208677600    2.09020490482865
H         1.97716255708817   -1.56642615424765   -0.00334390717650
H         1.33262044583767    1.22810085234056   -2.45038199661860
H         3.77043356548400    0.42331428589365   -0.78786662634082
H         3.80430049861416    1.30992962726105   -2.31336842672753
H         3.08211369644713    2.04814298074306   -0.88321169892846
H         2.73078384712115   -1.46463494234855   -2.12107647312503
H         1.09046873519723   -1.27520108029880   -2.76299625448030
H         2.46449540788682   -0.54513202715492   -3.59666770826596
H         0.06975784809226    2.22519791569588   -0.71141616210225
H        -1.14351753799994    2.02235111452798    1.44143567466002
F        -5.50916112523523    1.85099990282043   -0.47179159077835
C        -5.00038294630980    0.63980801094474   -0.18713210269594
C        -5.83880635105254   -0.42529572432385    0.09374949544609
C        -5.22819046365033   -1.63410079618932    0.38450388118774
C        -3.84319418883738   -1.73629614606162    0.38406936340870
C        -3.18004212565838   -3.03873573178097    0.76740826590910
N        -2.19470248162328   -3.44651484637257   -0.20228329628960
C        -1.95888077839744   -4.65087948446384   -0.75720230012312
C        -0.78882922407265   -4.49175950438855   -1.48938574618508
C        -0.03410299516887   -5.45017110029888   -2.27803711110264
C        -0.43655902496787   -6.78163237973136   -2.37295595567364
C         0.30478183158706   -7.67721029568698   -3.12052612195555
C         1.45062400515316   -7.25875154980936   -3.77825015308877
C         1.85469283637292   -5.93578076518384   -3.68846752520770
C         1.11877120846345   -5.03488561651326   -2.94361300814886
N        -0.39301190719029   -3.20606952508089   -1.33298304598919
N        -1.23094947424232   -2.61419246887914   -0.57458160695449
N        -3.05271376905069   -0.68668460928611    0.09906712133435
C        -3.62574823898892    0.48510141301501   -0.18316293672654
H        -6.90923204412242   -0.30672059321476    0.07836279255465
H        -5.83104616270335   -2.49738004364016    0.61315728813939
H        -2.67431688116023   -2.90203401039794    1.73521306013377
H        -3.92460638028909   -3.82871068471366    0.86366937534877
H        -2.59445909990364   -5.49587647189364   -0.60424917384159
H        -1.32516826616216   -7.11975116004924   -1.86480103083421
H        -0.01008161431285   -8.70730527174740   -3.19147251828824
H         2.02684261291461   -7.96223457470418   -4.36001644208704
H         2.74606127692378   -5.60885165764859   -4.20205791281179
H         1.42070873338968   -4.00232922818949   -2.87016690067961
H        -2.98897961234901    1.32236179107496   -0.44155055638147
Cl       -1.71279493887478   -0.40843790992258   -2.49696303073896
