61
 energy: -98.764571280019 gnorm: 0.000490681524 xtb: 6.4.1 (afa7bdf)
Ru       -0.40136825792282   -1.03704102557979   -0.43599456640914
C        -0.08414516882262   -1.61595140304793    2.99567756312991
C         0.32552465651922   -0.91211776408929    1.74011837521351
C         1.37508128686310   -1.41385484168745    0.92767225974388
C         1.86896055570067   -0.68078776412207   -0.16821382406145
C         1.33670736768716    0.59327435717264   -0.48587114573147
C         1.97006878634749    1.49019601887451   -1.51857603369030
C         3.00447250969133    2.36490289328314   -0.79344913072995
C         2.62332566807596    0.73443156966202   -2.67447557091303
C         0.26009052433643    1.08030222689570    0.29012705266702
C        -0.23937961485421    0.33732552020678    1.38072511366006
H         0.05064086943634   -2.68989984421611    2.90433702916834
H        -1.11966871288181   -1.40368927615368    3.24697156028205
H         0.54161542615682   -1.26582753786652    3.81662992804685
H         1.85898468780527   -2.34529049799324    1.20168156985115
H         2.72626611283588   -1.05586536956965   -0.71144231857885
H         1.19121954985723    2.14058197132178   -1.93187442457329
H         3.78203779938960    1.74475923359787   -0.35422870304087
H         3.46515347092967    3.04498372170853   -1.50406150368678
H         2.53814044507618    2.95075109886686   -0.00526921190175
H         3.52867060611656    0.22421874547298   -2.35696316262915
H         1.93128779023497    0.00714693056860   -3.09431639387308
H         2.89350895596480    1.43636366599829   -3.45889024831574
H        -0.11586616455684    2.07981120134606    0.10130467522336
H        -1.00113624412492    0.77322421930062    2.01972450008651
C         3.99137702203312   -8.78821699510722   -0.38629987686351
O         3.22141695208634   -7.60359810930495   -0.29469904696557
C         2.00085885736262   -7.57313473027479   -0.88728057951257
C         1.41908280973113   -8.62276843180607   -1.59198803805094
C         0.16240594233472   -8.47679948743442   -2.15252102344562
C        -0.56121565198573   -7.29602104276598   -2.03261001112565
O        -1.79555077101843   -7.09569765459518   -2.56705060964338
C        -2.35930053513387   -8.11029622056212   -3.38192532477964
C         0.03092946688705   -6.23763373518913   -1.31828291727053
N        -0.61006265947763   -4.99770759979857   -1.15905160081427
C        -1.92107163260806   -4.69586971174335   -1.25189127196387
C        -1.99330745537272   -3.34128061320032   -0.97922468322681
C        -2.97827383101001   -2.29699710714552   -0.86269584527834
C        -4.34456986167069   -2.42855913748982   -1.09330718645685
C        -5.16172548993502   -1.32279312283168   -0.95711425386323
C        -4.56978637793088   -0.11538681331330   -0.59783729165381
Br       -5.62140612037076    1.46584477641048   -0.39678653425816
C        -3.20202151232604   -0.04780380806826   -0.37951105376053
N        -2.41984577862758   -1.11522333957108   -0.49650857669283
N        -0.71465041328350   -2.93399403766369   -0.74205472596691
N         0.09926312051988   -3.91685681829318   -0.84866896461667
C         1.29181422332791   -6.38253801148074   -0.75985568929089
H         4.22951134492650   -9.02612233525341   -1.42587322877604
H         3.47687613374398   -9.63166892792829    0.08045977103140
H         4.90927546162755   -8.57664250890635    0.15708801533115
H         1.93128657710626   -9.56204577240300   -1.71572401641085
H        -0.25338122233180   -9.30996530503318   -2.69315308837198
H        -3.30300925592058   -7.70150844419382   -3.73525315534625
H        -2.54706116486727   -9.01894049794723   -2.80607763554429
H        -1.71735230412391   -8.33414860680264   -4.23597632070922
H        -2.67231615891217   -5.41772305937474   -1.48658524807778
H        -4.74825269879243   -3.38358089854804   -1.38430109523297
H        -6.22346413379054   -1.38656894567268   -1.13181950372064
H        -2.73449955171439    0.89265679289779   -0.11880377628867
H         1.73536331329269   -5.56340192147289   -0.22146968908899
Cl       -0.68421854962485   -0.80483986808209   -2.79268131223371
