55
 energy: -88.384815749578 gnorm: 0.000175170092 xtb: 6.4.1 (afa7bdf)
Ru       -0.54885627414798    0.08190898694348   -0.00921506692600
C         0.06980846280926   -1.93252002950612    2.73270059951187
C         0.56015539175171   -0.95406509154782    1.71442827385293
C         1.15756428106268   -1.41261563016550    0.50465666510255
C         1.67851301975385   -0.50629155619940   -0.41732165204853
C         1.73919234515424    0.89324107934711   -0.13075287651295
C         2.52942589595623    1.83925085556756   -1.00261694281200
C         4.00993170186239    1.71595150411428   -0.61641860137725
C         2.33838263011693    1.58228871915486   -2.49771119771592
C         1.18232012749416    1.33947416084411    1.07119527629540
C         0.54391240004806    0.43665424139382    1.96403323646656
H         0.92454145474954   -2.31637816020459    3.28998790287811
H        -0.42008571540508   -2.77989551253899    2.25824475975741
H        -0.61001590873332   -1.46356336517994    3.43854537631037
H         1.23352187345341   -2.47792931393419    0.32083662168750
H         2.14861032840924   -0.87856846149636   -1.31940410797249
H         2.20483062971248    2.86281773156447   -0.78501882519613
H         4.36901337192432    0.70487149745751   -0.79417599734246
H         4.60247630174138    2.40051594966012   -1.21698153355278
H         4.15832189636417    1.95769029187118    0.43318147551687
H         2.85385641599165    0.67890263672463   -2.81464584775691
H         1.28256272898915    1.48094193982743   -2.74359112444173
H         2.74453911141165    2.41249856361587   -3.06935293671118
H         1.27838102601753    2.38243388092999    1.35246917609250
H         0.18108534007207    0.80443643364930    2.91783797711821
F        -3.10054299961931   -8.27502672121661   -2.58201411384822
C        -3.04824804302437   -7.01365663702200   -2.06663415033940
C        -1.85109619170474   -6.32366209671243   -2.11459565373518
C        -1.80810381891358   -5.04579266553972   -1.59301059901025
C        -2.94790318747826   -4.46964225404175   -1.03144075895633
C        -2.87122961171229   -3.12020546330467   -0.49809166608844
C        -3.84652375266871   -2.32401714009226    0.08945562749760
N        -3.22172807913413   -1.17264770706398    0.39987568702960
C        -3.69462462640481   -0.03103069391077    1.13683610445416
C        -3.28329267715471    1.27444805744771    0.49973989110757
N        -4.23137301452043    2.17560767877305    0.37497308454409
C        -3.92629703996746    3.36591769168483   -0.11667135489743
C        -2.62307936530608    3.67114372534459   -0.49138875036758
C        -1.68431086695137    2.66594109858299   -0.35622961898634
N        -1.99909387035675    1.46300703147132    0.14369985712429
N        -1.95247416988174   -1.26548648176611    0.02518580367600
N        -1.72299744445665   -2.40299489964142   -0.50591854123688
C        -4.13964195580939   -5.19285731506084   -0.99612113075640
C        -4.19480028584693   -6.47216747344976   -1.51618411054858
H        -0.98284381071228   -6.78619820964027   -2.55464342180333
H        -0.89386679495774   -4.47658529491642   -1.62106934527895
H        -4.88022714763068   -2.49643403120226    0.29712929650098
H        -4.78368565529793   -0.05490781516103    1.19730167004775
H        -3.27794541459220   -0.06971525285907    2.15391618907540
H        -4.74152622189278    4.06714155194750   -0.20957180141003
H        -2.35274605932709    4.63405813710830   -0.88795670804945
H        -0.65596193873099    2.81003129139681   -0.67037203943762
H        -5.02854268066468   -4.76282909025781   -0.56619410095391
H        -5.10518396772680   -7.04869317512722   -1.50231025770169
Cl       -1.08610514410059    0.25584980232921   -2.34055671787256
