57
 energy: -91.541515728838 gnorm: 0.000975201415 xtb: 6.4.1 (afa7bdf)
Ru       -0.29185489174847   -1.08255643956347   -0.54805879038511
C        -0.27605083850916   -2.33950415472772    2.65227157539121
C         0.15604445631579   -1.30009373372756    1.67043208824962
C         1.38880489423454   -1.44477476354052    0.97106993546942
C         1.83340233478623   -0.44661968724452    0.10049883083730
C         1.11998914342723    0.78283127902332   -0.04877923665982
C         1.71357129170368    1.95696995967634   -0.79033349165168
C         2.66315054499368    2.69179938786943    0.16614562516287
C         2.44077221029364    1.55463569204774   -2.07340120302180
C        -0.08007174517019    0.93061301841392    0.65813339899116
C        -0.58684993753636   -0.11212941395839    1.47696626165908
H        -0.10140213730161   -3.33761114614690    2.25670113991180
H        -1.32661837662452   -2.22948635514350    2.90650830744009
H         0.31212869818158   -2.23243545386178    3.56329659763974
H         2.00510417761763   -2.31650943648802    1.15595139261561
H         2.78995839105773   -0.56374204543609   -0.39608529273249
H         0.90071143036341    2.64037837007922   -1.05893102716763
H         3.47679458852726    2.03837009689744    0.47375719641172
H         3.08804967416750    3.55753132803148   -0.33384858210872
H         2.13405484490880    3.02897974946488    1.05450337597233
H         3.38691502550945    1.06563112720357   -1.85787591102510
H         1.82784395875231    0.87985830513192   -2.66807402422490
H         2.65220705672785    2.43822707259321   -2.66903917209939
H        -0.60227993245917    1.88056512125244    0.62862524914958
H        -1.48347465702281    0.05992662594608    2.06259958201336
C        -5.83035752371281   -2.86785224125925   -3.52704586081833
O        -4.61644543635125   -2.89828257168065   -2.78253195695719
C        -3.99723510278960   -1.74162961925075   -2.51849974390170
C        -4.42426836526190   -0.46965005382819   -2.90072864374544
C        -3.65633143241003    0.62792690163403   -2.54873367461272
C        -2.49104432430378    0.45774225218872   -1.82039635616875
N        -2.07780420499975   -0.74518192510527   -1.43637658630546
C        -2.79892763738612   -1.82890322943300   -1.78418186974855
C        -2.19615972059853   -3.05569898645508   -1.32838768698311
C        -2.43889439056830   -4.41273235098557   -1.34020630643936
N        -1.39282661555214   -4.95743743400706   -0.67513393809342
C        -1.13999069855321   -6.30616954928772   -0.38522652496252
C        -2.06817652165241   -7.29610220001401   -0.69431049250044
C        -1.78631524699934   -8.61610859122341   -0.39478407660634
C        -0.58326708838389   -8.93769804057114    0.21350020992910
Br       -0.19747075861380  -10.77786824259757    0.62847083961524
C         0.34597002238172   -7.95817773987240    0.52956077052962
C         0.06559992979267   -6.64026756171426    0.22817422350653
N        -0.55163334561419   -4.00861748496877   -0.27299903753754
N        -1.02191512612733   -2.88108589539650   -0.65775631558019
H        -6.13975395907205   -3.90617192707996   -3.61226943762182
H        -6.59742442051579   -2.29883338445105   -2.99936975529476
H        -5.66885590162367   -2.45155612516912   -4.52254096336484
H        -5.32888385830272   -0.33320516050863   -3.46846685595085
H        -3.96106219543994    1.61850912513841   -2.84103853580077
H        -1.87080380474934    1.30091823778853   -1.55147333646636
H        -3.24426957355025   -4.96231666004658   -1.77456237794106
H        -3.00911324056530   -7.05952779845205   -1.16006330336072
H        -2.49752379165011   -9.39085840630135   -0.63098624346369
H         1.27663388857014   -8.22511997278619    1.00301479722255
H         0.77564858582708   -5.86419460816538    0.45807450368222
Cl        0.40973365357701   -1.44577925993085   -2.80495829010311
