62
 energy: -94.174228513243 gnorm: 0.000584653109 xtb: 6.4.1 (afa7bdf)
Ru        1.25255971330550   -0.26461381829739    0.72861195886740
C         1.96342238213379    0.25721149998850    4.07637203252036
C         2.09714602300852    0.66320682048462    2.65127923858750
C         3.14690492733809    0.13413620313229    1.84164871471854
C         3.33412790698360    0.57541273355953    0.51506046384163
C         2.42983754563648    1.49465434163142   -0.07108182401028
C         2.59892628533707    1.96696457881427   -1.49001081660039
C         3.78629141359664    2.93698630123017   -1.55564773013261
C         2.79280676284190    0.79223118726628   -2.45321267972834
C         1.37137676398525    2.01466660102293    0.73746218084445
C         1.22382775103937    1.62432280072205    2.07824416907704
H         2.22576203128645   -0.78932196315412    4.21576430650496
H         0.95931873344557    0.43457924505739    4.45107168479508
H         2.65707044915488    0.84969899803179    4.67497474770853
H         3.85925195270003   -0.55521538826804    2.28294834850093
H         4.17681862020494    0.20777714495379   -0.05590637000932
H         1.69536038869186    2.50905241176565   -1.78567803462022
H         4.70966101278502    2.43822637522486   -1.27340490926455
H         3.89335631151141    3.30852684360374   -2.57051177803850
H         3.63025906280557    3.78321075284160   -0.89191222158686
H         3.77860227108589    0.34787568654542   -2.34529210844038
H         2.04435403897664    0.01777570847785   -2.27314379043998
H         2.69281089051887    1.13703997180078   -3.47807442343107
H         0.71943051429560    2.77811940477494    0.32373465287285
H         0.46205317341883    2.08836578218032    2.69473377375127
C        -1.01523578289945   -1.27519110727442    1.86340133986461
C        -1.71734930114081   -1.42370589738103    0.50879220734630
C        -1.23915443165689   -0.31906828096068   -0.43997235961820
C        -3.22786898334470   -1.32348917616343    0.71756030342925
C        -3.99933320171190   -2.43746321218326    1.02101030923824
C        -5.36053265165092   -2.26007077497878    1.21804139091484
C        -5.89339459796763   -0.98524636060228    1.11393327418949
C        -5.03204664773108    0.06244934134691    0.82227481281947
N        -3.73541527318074   -0.10096371455960    0.62856746884318
N        -1.37638124425079   -2.72892321161450   -0.03052099959125
C        -1.59219322967567   -3.20952005060572   -1.27138070868834
C        -1.12008356293470   -4.51286716030597   -1.22956945546171
C        -1.06871455072227   -5.52724310477683   -2.26693676062828
C        -1.55103495060207   -5.27405896792895   -3.55020329437895
C        -1.49128517673524   -6.24899001832451   -4.52754520849965
C        -0.94543019740918   -7.48453841145144   -4.22095217266179
Cl       -0.86769763473102   -8.71650264833830   -5.45313033660820
C        -0.46148616548815   -7.75839233994899   -2.95199663244609
C        -0.52526455084499   -6.77885603656293   -1.98061644219762
N        -0.66342410667101   -4.72998688275815    0.03138979979506
N        -0.82318164632878   -3.67199357677575    0.72796090277640
H         0.10330683398504   -1.41451843455918    1.73257551580261
H        -1.32542799298473   -2.06869698868049    2.53958668066339
H        -1.26560665687775   -0.30982306348770    2.29988652961001
H        -0.11561753820142   -0.37995814502929   -0.58578985762253
H        -1.54754693927508    0.64485912345483   -0.03739047890015
H        -1.68439373897600   -0.42578955606473   -1.42586935101557
H        -3.55659952562539   -3.41754963476622    1.10509068105313
H        -5.99049813768160   -3.10468438093422    1.45109323745517
H        -6.94633874979282   -0.80826010179336    1.25899842160985
H        -5.39101780542473    1.07824008303786    0.73854304569539
H        -2.04527797731732   -2.64028968314187   -2.05226658593038
H        -1.97707244931764   -4.31403055259347   -3.79326389912266
H        -1.86372980035047   -6.05558451570422   -5.52043999811636
H        -0.04062995037827   -8.72566216336802   -2.73020602717744
H        -0.15410346560045   -6.97028513831022   -0.98671511355010
Cl        1.74809485538651   -2.26462447943404   -0.30264782516360
