77
 energy: -114.319480455880 gnorm: 0.000283329034 xtb: 6.4.1 (afa7bdf)
Ru       -1.07653490201100   -0.86743669486657    0.01049811500227
C        -1.18003033051902    0.51634168118575    3.20332607151518
C        -0.54570017822321    0.39196721025262    1.85436821142146
C         0.47292960178833   -0.56302365341735    1.62651159967835
C         1.17101568914169   -0.59766148629265    0.39309416817133
C         0.83199561933036    0.27223888180718   -0.65418643106501
C         1.59706778078571    0.26989538648044   -1.95552245328773
C         2.99875493687672    0.84632207438040   -1.72600323233211
C         1.66590861337068   -1.13635044041063   -2.55435151274628
C        -0.19968254548790    1.23098444102531   -0.42087133660256
C        -0.85357608942200    1.31085750040744    0.81173861474378
H        -1.34450229245751   -0.46189102984018    3.64905540387887
H        -2.12499724464012    1.05001970261308    3.15411280618387
H        -0.51004622052017    1.07435181846554    3.85800923959817
H         0.79476367925636   -1.20213189395379    2.44130696043658
H         1.99736143487534   -1.28664267213581    0.27465926966070
H         1.06679975175263    0.91543873324835   -2.66435276226398
H         3.56515685458564    0.22158075664214   -1.04057642441854
H         3.53346068070739    0.89520576942270   -2.67037133875184
H         2.93942384268292    1.85062036276161   -1.31259338559158
H         2.28113215186896   -1.79314603741955   -1.94742219767949
H         0.66322717729314   -1.55644196221622   -2.62398258605955
H         2.09061369084633   -1.09003184495977   -3.55301720643820
H        -0.42200922763042    1.95967452015736   -1.19472947414826
H        -1.55518199482721    2.11631602661138    0.99671526073123
C        -6.06688987093875   -5.03334836592273    0.72312875902809
O        -4.76655724846337   -4.49561163594789    0.50924940839523
C        -4.57791490720670   -3.18249342934431    0.69568529521869
C        -5.54199515481642   -2.26027351779402    1.10102036723980
C        -5.17806367812493   -0.93075503998766    1.24002535951103
C        -3.87708752179922   -0.53587503408527    0.98264201018065
N        -2.94281891423498   -1.40321636869797    0.60599724347051
C        -3.27686941117289   -2.69994784945980    0.45483529216722
C        -2.16590991993559   -3.50744108539958    0.01870867713596
C        -1.87832382766602   -4.82062487685057   -0.30351197127000
N        -0.57337409698211   -4.81292895262549   -0.62995431961866
C         0.20651001409775   -5.90929509962998   -1.11939591778731
C         0.03477282636379   -6.04532248717916   -2.64675536345345
C         0.59561588701273   -4.84382321719180   -3.41558882102341
C         1.25798087186980   -5.46298194671926   -4.64653465213875
C         1.80164705164854   -6.78460272416793   -4.11111330235108
N         0.79847121178118   -7.18052636782478   -3.13759785137344
C         0.45163957888056   -8.44036269495212   -2.83106040190857
O        -0.46891735369257   -8.69932009868424   -2.06451489591145
O         1.23964105553791   -9.33267263322418   -3.44321198567767
C         1.07007120536987  -10.76233122358840   -3.23265016074326
C         2.15757121560160  -11.39204675691073   -4.10321966630069
C        -0.31548195012889  -11.20687382968639   -3.69959189889153
C         1.29568410481481  -11.10760806485128   -1.76110760455739
N        -0.06485031981394   -3.59901008173007   -0.53303742885268
N        -1.00496672464031   -2.81456097636279   -0.14533445528855
H        -6.79291576284362   -4.58344075708918    0.04388729160910
H        -5.97622203060936   -6.09491011037706    0.50841982739662
H        -6.38150894893980   -4.89424540390383    1.75873675344419
H        -6.55609815892104   -2.56408484816271    1.29693667910884
H        -5.90641735815731   -0.19886706389646    1.54587676843959
H        -3.58264060791065    0.49967013716484    1.06692996703630
H        -2.48919779131406   -5.69739442497133   -0.31457823883039
H         1.25377459053488   -5.71920990610511   -0.88422958533920
H        -0.12658330435291   -6.83551085007965   -0.64770280026130
H        -1.02794256926290   -6.21417212650461   -2.86055664258092
H        -0.18193996960354   -4.13053662363588   -3.67828769731602
H         1.34028452880286   -4.33210542603094   -2.80763569681792
H         0.51584259339806   -5.65336638904039   -5.42143233944233
H         2.04097808520341   -4.83346948972197   -5.05887255985472
H         2.76505061413139   -6.64683565874596   -3.61136808212692
H         1.90867287920189   -7.55385679643255   -4.87414430431437
H         2.12307016707667  -12.47221209710344   -4.00831028845842
H         2.00561940124432  -11.12197401634404   -5.14445664460446
H         3.13563979729201  -11.03721889706202   -3.79132688785054
H        -0.39819324515657  -12.28579443256037   -3.61512487544378
H        -0.47065990056256  -10.92013975564699   -4.73739401834288
H        -1.08644509167940  -10.74489779158512   -3.08791412608944
H         1.25274476299162  -12.18425445171117   -1.63100675742883
H         0.52807995869452  -10.64743559056725   -1.14422535301361
H         2.27097504600604  -10.74985611384087   -1.43950648037325
Cl       -2.07526028804355   -0.95673990718355   -2.16086800333332
