69
 energy: -118.393297328597 gnorm: 0.000272493458 xtb: 6.4.1 (afa7bdf)
Ru       -0.48614824165393   -1.06800053545650   -0.74476963377036
C        -0.24070137896685   -2.45500068938831    2.42058734338070
C         0.11747301994670   -1.39335415949356    1.42880362408132
C         1.29297307526791   -1.50366175938173    0.63339809176278
C         1.69626020550321   -0.46456566626409   -0.21202353467434
C         0.97403087025549    0.76329419896227   -0.25912015719061
C         1.51154421126192    1.97511612645990   -0.97965854505260
C         2.36772219127347    2.76476125522335    0.02201139460304
C         2.32390994689386    1.64066355218397   -2.22973976387081
C        -0.18936845440411    0.87922198588161    0.52048271780391
C        -0.63078422887867   -0.19616998082840    1.33302994696699
H         0.04235408048171   -3.43968855216328    2.05903412836097
H        -1.30490734805086   -2.44550007129033    2.63924435073624
H         0.29901212507454   -2.26816508937868    3.34913987336257
H         1.91180639337795   -2.38896503511054    0.72473219812790
H         2.62313060712941   -0.55755887920973   -0.76271794704568
H         0.66343766366022    2.59937076507235   -1.28159644769636
H         3.20784307301016    2.16209734264220    0.35919084674036
H         2.75579250254142    3.65898085221208   -0.45740667896148
H         1.78206128002050    3.06170147059859    0.88830323427440
H         3.28602475754656    1.20301417433705   -1.97551049045200
H         1.77723957170314    0.95036343324161   -2.86908607837839
H         2.51126853077794    2.54919290762622   -2.79610450976892
H        -0.70586294225802    1.83183092432056    0.56125343723365
H        -1.48941674187588   -0.05517458495206    1.98210790922353
C         0.12741596765383  -13.29013254610227   -3.07388328370044
C        -0.61720957209072  -12.19438572334269   -2.38179493606634
O        -0.21685578107576  -11.56627224699590   -1.42438292275212
O        -1.80260979592686  -11.96858542695560   -2.94713172663408
C        -2.65218342030871  -10.97789466315335   -2.35528006652746
C        -1.96151612157046   -9.65256014252751   -2.16155917278409
C        -1.24415605393724   -9.08926428037176   -3.15276445504473
C        -1.16460337269913   -9.62183916879525   -4.54272411514961
O        -2.08163325449295  -10.16316003731399   -5.11840034101469
O         0.02733814806698   -9.42388044553803   -5.07305896282345
N        -0.50424283786206   -7.93547891368325   -2.91311127051875
C        -0.20209239158655   -6.81927987882225   -3.62475077407138
O        -0.29069824194904   -6.52623230248975   -4.78552398203894
C         0.25164985532413   -6.08125606014138   -2.33909879561502
N        -0.44186416167743   -4.87360671641169   -2.04634828632892
C        -1.74355471342992   -4.59407919306951   -2.26309054888780
C        -1.90817594877840   -3.31157696401148   -1.78123204679228
C        -2.94271247729911   -2.31197316342312   -1.64980509654469
C        -4.26933538575258   -2.45522205468190   -2.03816515823900
C        -5.13441421846441   -1.39038416906822   -1.85555271327116
C        -4.64275939710892   -0.21827497657462   -1.29584315070619
C        -3.30880754922438   -0.15033290068636   -0.93247828375753
N        -2.47362507235717   -1.17256387589164   -1.09038621695222
N        -0.68896086114885   -2.92171907745491   -1.31092052079559
N         0.17606045259336   -3.85300669106473   -1.46867522190057
C        -0.21123810771531   -7.36989808238300   -1.61514620155533
S        -1.74951727011331   -7.30188800167005   -0.64271286338375
C        -2.05639001737307   -9.08950908997268   -0.77919178168168
H         0.17186998785402  -14.15316984341905   -2.41294622880047
H         1.14703935996202  -12.96881256482222   -3.26885018039342
H        -0.38010107877963  -13.55902178175132   -3.99406743754677
H        -3.00382612764990  -11.35656816190719   -1.39125608789111
H        -3.48602071190135  -10.89054330665749   -3.05499727740100
H         0.08835022550352   -9.73193819905050   -5.99858875542076
H         1.32313338413283   -5.88695854012733   -2.27294394693128
H        -2.42396157860269   -5.27312876716513   -2.73012080808817
H        -4.59696413209590   -3.38178209771283   -2.47797187927708
H        -6.16816971768484   -1.46858255243673   -2.14922327009615
H        -5.28074431967322    0.63601979948085   -1.14496698807035
H        -2.89687294332152    0.75560180100552   -0.50845929245507
H         0.54718368472641   -7.91464891819508   -1.05212508464511
H        -3.06409297783083   -9.22998628760923   -0.38843073601346
H        -1.35144739995486   -9.60863143569251   -0.12424205478437
Cl       -0.41571582405037   -0.60708533711774   -3.09213738653148
