61
 energy: -97.301924280807 gnorm: 0.000622616117 xtb: 6.4.1 (afa7bdf)
Ru       -1.02647459556219   -1.08824795881779   -0.21845473068318
C        -0.46122797759641   -1.48277788865559    3.21006592747400
C        -0.07142671582247   -0.92840765765998    1.87378656986251
C         0.84880044486715   -1.61260403911644    1.03677921696355
C         1.32659023127047   -1.03530389138854   -0.15090916322017
C         0.92720665639342    0.26895925901220   -0.53267986173351
C         1.56292485226309    0.99250642865953   -1.69199630581166
C         2.75930345156196    1.78404155025235   -1.14221544821348
C         2.00433507907828    0.07025966566828   -2.82692722849518
C         0.02065285441728    0.96191188893482    0.29849879305083
C        -0.48456065799779    0.36727021714785    1.47149355799917
H        -0.46980685516850   -2.56921383677499    3.19886722295850
H        -1.43193930033129   -1.10856764109196    3.52358760411896
H         0.27323232848911   -1.16476779469303    3.95048265506770
H         1.24114547843881   -2.57375214774509    1.35252558656491
H         2.07285510248879   -1.55999529846327   -0.73174969601049
H         0.83250717799398    1.70267456199443   -2.09567652989246
H         3.49337548812564    1.10837025013315   -0.70930845305595
H         3.23257750576821    2.33592506708381   -1.94940542142470
H         2.44380587531667    2.49079416288672   -0.37847895347793
H         2.86932374376265   -0.52450821265184   -2.54518155017987
H         1.19256252968042   -0.59396700610197   -3.11667170123339
H         2.27855581886671    0.66669268114418   -3.69347412188186
H        -0.22518172043704    1.99265365552047    0.06919697186652
H        -1.12446156176287    0.94705539108724    2.12937510290204
C         2.18289906892155   -9.47613140649145   -4.28847483088403
C         0.81983911941216   -9.56959757827122   -3.66414299938976
O         0.17794633216805  -10.61018432291310   -3.69183623439897
C         0.27751869070634   -8.35722930651046   -3.01013398266196
C         0.95893128640595   -7.13846915548404   -2.97379080255809
C         0.39803458634214   -6.04748254879727   -2.34437616388040
C        -0.85352553115555   -6.14306612965352   -1.73362690408580
C        -1.41627064060791   -4.98230980397229   -1.06836253185808
C        -2.60926831711414   -4.84181741149606   -0.36926324317625
N        -2.61989190137417   -3.56570281934615    0.05459841567437
C        -3.53541157286208   -2.87523571550344    0.92745526485236
C        -3.96383352580179   -1.54798845147191    0.34633877803659
C        -5.30934040367941   -1.21206273567418    0.28223829048394
C        -5.69389254514732    0.02489306915658   -0.20560754644456
C        -4.69282701619758    0.89468339465780   -0.61852377974008
Cl       -5.06989170720582    2.45828434793572   -1.25230845363835
C        -3.36664922614807    0.49523174511424   -0.53339479449336
N        -3.00658693994593   -0.69796290411068   -0.05964157392564
N        -1.50814640843615   -2.97002847763561   -0.36317740275690
N        -0.78325183530771   -3.78536728950417   -1.02416565465115
C        -1.54016344527113   -7.35755962161523   -1.77055854681720
C        -0.97809619161283   -8.44499919973398   -2.40246043479886
H         2.44959895834550  -10.44121187121548   -4.71144721084701
H         2.91744698177589   -9.19315404545428   -3.53903122038081
H         2.17878092570266   -8.72636875425830   -5.07569318675593
H         1.92618613926793   -7.03863340373217   -3.43741632036438
H         0.91611698453149   -5.10266055467313   -2.31738757143943
H        -3.39497946483927   -5.53382548262999   -0.15585608806695
H        -3.02658464152500   -2.69494225308972    1.88617900729218
H        -4.40360127758664   -3.51102884830957    1.09998576130936
H        -6.05586342059438   -1.91507887308143    0.61360734592201
H        -6.73152870639523    0.30553845075693   -0.26998994953029
H        -2.57926380842176    1.15156438005393   -0.88211098006547
H        -2.50976309491558   -7.45338721781526   -1.31048426963044
H        -1.49501567327269   -9.39258773521601   -2.44143143685144
Cl       -1.49682001225389   -1.00366087641477   -2.56384379299000
