53
 energy: -84.296512704428 gnorm: 0.000711090540 xtb: 6.4.1 (afa7bdf)
Ru       -0.48412522307769   -1.11340905920455   -0.42487181719257
C        -0.15842475300643   -1.68635293471633    3.00474070356494
C         0.23692169832116   -0.97192464421054    1.75069490587379
C         1.30523717721034   -1.44496720031542    0.94368428811263
C         1.77668470944442   -0.70395535579185   -0.15394703968685
C         1.21846780127807    0.56281875584809   -0.46868817538309
C         1.84128636053289    1.47739851527831   -1.49232890031997
C         2.85935233725857    2.36186141900451   -0.75614600136743
C         2.51223243930303    0.74220408401097   -2.65153964660400
C         0.13132435990783    1.02228858749729    0.30399769169088
C        -0.36107879987086    0.26009802364602    1.38727245997808
H        -0.00438627319175   -2.75754348245017    2.91114763691169
H        -1.19751559657059   -1.49347678159331    3.25803389185331
H         0.46199447004057   -1.32667449290300    3.82593016512005
H         1.81233619430432   -2.36263323380713    1.22104892201516
H         2.64177881588461   -1.05785776724556   -0.69933648033802
H         1.05432014122195    2.11947683462569   -1.90344210090197
H         3.64658972508400    1.75033692788339   -0.32159540801516
H         3.31002216863585    3.05635944553761   -1.45936810887678
H         2.38255995970097    2.93246166893440    0.03708184495223
H         3.42660300581174    0.24753264191412   -2.33489146933393
H         1.83677991097595    0.00415452573451   -3.07956697392590
H         2.77141631455901    1.45458946602760   -3.43032169145584
H        -0.26500750429318    2.01466832860510    0.12003024821058
H        -1.13785405035910    0.67563981401302    2.02173601037111
Br       -5.68967927341751    1.41570647213654   -0.59852501957285
C        -4.64186357552450   -0.17613137886568   -0.72497613126033
C        -5.23036185313672   -1.39036122993485   -1.06624079426398
C        -4.41601184435505   -2.50365612922073   -1.14874651423471
C        -3.05568043478555   -2.37223027069266   -0.88572353891010
C        -2.07210007812026   -3.42346319971525   -0.94720348583599
C        -1.99226119005315   -4.78104587377295   -1.19921759625372
N        -0.68422230037652   -5.08176842404446   -1.06197247378771
C        -0.05353195692094   -6.33133412725281   -1.20341031598611
C         1.21151148571375   -6.50433330983970   -0.65075611304401
C         1.84998891031062   -7.72311107985042   -0.78115108379820
C         1.23236087903067   -8.76466341562328   -1.45630715482181
C        -0.02555516488744   -8.58377237776261   -2.00943303292876
C        -0.67566378315535   -7.36864968787834   -1.88956263355977
N         0.01509908333713   -4.00015176720092   -0.74369941124331
N        -0.79971274358477   -3.01421709684305   -0.67625504766468
N        -2.50039062502292   -1.18279772476006   -0.53867654062694
C        -3.27958735832004   -0.10917763667248   -0.47170686936856
H        -6.28745606276662   -1.45454138935635   -1.26758199351502
H        -4.81994375036394   -3.46347684344535   -1.42278026463879
H        -2.74947971816620   -5.49750480576961   -1.43425176333865
H         1.67647362190180   -5.68506702217999   -0.12925134565745
H         2.83019532634563   -7.86210203178375   -0.35423719891801
H         1.73214311163307   -9.71509435323494   -1.55576999409945
H        -0.50212523411427   -9.39105653434821   -2.54228933268045
H        -1.64239385183321   -7.23402410274383   -2.34516654180851
H        -2.81484250848834    0.83592947747837   -0.22306008133354
Cl       -0.69818649997816   -0.97458722315285   -2.79638968209888
