67
 energy: -99.622603906734 gnorm: 0.000540096456 xtb: 6.4.1 (afa7bdf)
Ru       -1.08053995543976   -0.97468324005087   -0.04240894596341
C        -1.35940621838950   -0.58952417623218    3.41263190300325
C        -0.63235119178316   -0.35747136705785    2.12605509650936
C         0.34871667223885   -1.27745585503647    1.68312278261355
C         1.13771241671506   -0.99880886611130    0.53939212051642
C         0.93302166578471    0.16723824755869   -0.21532057467848
C         1.80135145146952    0.49290246193250   -1.40680992347037
C         3.23182245598922    0.78779878652004   -0.94237371019482
C         1.77467772508262   -0.64315792148681   -2.43169343584686
C        -0.06496572845125    1.08322839754357    0.22912923982503
C        -0.81192520880280    0.84465362441180    1.38782766190351
H        -1.65428875618371   -1.63135878761741    3.51220031972483
H        -2.24021365674161    0.04035998389110    3.49394651661033
H        -0.69408915388349   -0.34924718328008    4.24178331130903
H         0.57316200806681   -2.14798548354371    2.28960248944246
H         1.93235284456050   -1.68204522870036    0.26718506328545
H         1.39931427999488    1.39216119734521   -1.88711487361708
H         3.68199901408634   -0.09284376682137   -0.49233945385733
H         3.83775652514666    1.08672868894340   -1.79313511100626
H         3.24105821289518    1.59514220207524   -0.21356787480263
H         2.23776939842694   -1.54243494599025   -2.03732750109826
H         0.74446269406662   -0.87119740617086   -2.70372954539204
H         2.30900587129911   -0.34327003712254   -3.32895476304485
H        -0.18931924898329    2.02111493053572   -0.30426086536072
H        -1.48477508490100    1.60903385213960    1.75941822423281
C        -6.22498414764026   -4.89662549802453   -0.99829052600936
O        -4.89967836705362   -4.37876096582785   -0.95583648255728
C        -4.68412579455821   -3.21815408631327   -0.32267827522490
C        -5.64032241565457   -2.44473974864903    0.33376790099673
C        -5.24343447731381   -1.26065130519438    0.93402019386505
C        -3.91905336702185   -0.86316770401858    0.88059020019920
N        -2.99199356660025   -1.59464648858135    0.26997207495931
C        -3.35760429829530   -2.74517065126596   -0.32832626068342
C        -2.25042974584607   -3.41258825777093   -0.96365778996064
C        -1.98715443809689   -4.55792557865488   -1.69194648039730
N        -0.66792147121352   -4.50353011978106   -1.94443074404976
C         0.15066981834878   -5.48106906108180   -2.63794793337974
C         0.71234165393410   -6.49307240447139   -1.63409145970838
C        -0.36842351127698   -7.47584427693547   -1.20384743733996
C        -0.82415773112072   -8.28870763698157   -2.41105364477206
C        -1.15827899989039   -7.42916705162969   -3.59741865208575
C        -1.94056363761907   -7.95214001973163   -4.62321360919351
C        -2.25015251611071   -7.20218337891979   -5.74129717470008
C        -1.77701893820895   -5.90405627723149   -5.85523689366385
C        -0.99627898931241   -5.37380832393398   -4.84701477683766
C        -0.67978650020683   -6.12756299644151   -3.72080743317779
N        -0.12674613004835   -3.42084587879957   -1.42290424293432
N        -1.06162112196756   -2.76281591439580   -0.83673530140664
H        -6.89976523416682   -4.20553330381957   -1.50582524256479
H        -6.59145493283091   -5.11292804500762    0.00643187929189
H        -6.15228534967647   -5.81891517613340   -1.56831752445548
H        -6.67248256106423   -2.74869644409942    0.37288621780730
H        -5.96423717826435   -0.64327260869311    1.44280177446345
H        -3.59802382307950    0.06656927143279    1.32608805099108
H        -2.63276834844645   -5.33408629704164   -2.04146650136957
H         0.97368948514445   -4.91149948313985   -3.08120502830004
H         1.12132064653997   -5.95929764835977   -0.77617131501209
H         1.52469557181073   -7.03553877524323   -2.11764918518920
H        -1.21491891398076   -6.93810942688324   -0.77293028690506
H         0.02265332426244   -8.14655612709546   -0.43880942659790
H        -0.02276674466598   -8.97242250740215   -2.70736054249798
H        -1.68817879503285   -8.90309016249990   -2.15267397445628
H        -2.31026276140405   -8.96346097377266   -4.53740879636004
H        -2.85945358297639   -7.62681304472242   -6.52475037588449
H        -2.01445511557250   -5.31201760498300   -6.72574035274039
H        -0.62377956567119   -4.36302809294993   -4.93078296469778
Cl       -1.97838346038445   -0.27887303258251   -2.14964980813338
