59
 energy: -83.829680463850 gnorm: 0.000181463292 xtb: 6.4.1 (afa7bdf)
Ru       -0.35863204238749   -1.07142803378205   -0.62644956882055
C         0.56462949865695   -2.48634214508914    2.35034334390768
C         0.63338485978044   -1.34495479953606    1.38808659457720
C         1.67171271521284   -1.28938985519389    0.41334765034127
C         1.77494806416763   -0.19815815346395   -0.45119411350893
C         0.91610685575923    0.93806031428679   -0.32232279790836
C         1.17723518968175    2.21607901359059   -1.08360199116249
C         2.25808090930336    3.00551389807427   -0.33250411947641
C         1.59128763893219    1.97935930222084   -2.53588076895845
C        -0.08173711876772    0.89475661387482    0.65737225978859
C        -0.26009366038814   -0.25181247446562    1.47572743473866
H         0.78497874003030   -3.42527178723433    1.84705885120397
H        -0.41374761989393   -2.54701459740885    2.81930849904545
H         1.31162352323564   -2.33944004734370    3.13009409776686
H         2.40562244978431   -2.08537428646398    0.37295111642895
H         2.58731956239026   -0.16370185416980   -1.16807259456051
H         0.25633519017768    2.80948400876342   -1.08409163572576
H         3.18746325457114    2.44174214742623   -0.29725995189884
H         2.44590350181351    3.94575636917754   -0.84339966121912
H         1.94356003639472    3.22064591445211    0.68590712622079
H         2.60552223251260    1.59313408088270   -2.60276018191392
H         0.91831691964067    1.27281526287060   -3.01904790495872
H         1.55583824675370    2.91569566661885   -3.08633249512480
H        -0.69438272345392    1.77184831526159    0.83401467381185
H        -1.00248915003300   -0.23010583956611    2.26644237017303
C        -4.33895391538862    0.21055018190289   -1.49696176872039
C        -5.01474971460968   -0.97930381489802   -1.73460918717905
C        -4.32855079614246   -2.17405233566034   -1.60407842631711
C        -2.99034574521988   -2.13854085361025   -1.23094699088170
C        -2.11935293272601   -3.27803006932814   -1.06368804881516
C        -2.15585037578565   -4.65982072771796   -1.12259611319845
N        -0.90841047175240   -5.05233043788590   -0.81499295333897
C        -0.39493637567104   -6.40272775344903   -0.75257932252486
C         0.40230894723949   -6.60068734976873    0.53734181162234
C         0.94524408083310   -8.02577409272760    0.59555766950630
C         1.82415904778776   -8.31242008157071   -0.61835449755681
C         1.03631506465678   -8.09938835376381   -1.90759668579034
C         0.48982461322002   -6.67605733751897   -1.97285846522698
N        -0.12947364778558   -4.01185423507836   -0.58115204035812
N        -0.84143205318962   -2.95407818853797   -0.72499617264957
N        -2.34344565441731   -0.97558754423588   -0.98120086455066
C        -3.00535735420130    0.16741240042854   -1.12910209423612
H        -4.83368916904112    1.16145430941842   -1.59910349275729
H        -6.05262116723726   -0.97326805348809   -2.02414139767110
H        -4.80404834639757   -3.12149135269686   -1.79329803657554
H        -2.94701940690765   -5.34167566909495   -1.35043259997282
H        -1.25578299806231   -7.07725531976082   -0.76647132033434
H        -0.23531901819137   -6.40929386351618    1.40121824980879
H         1.23092546646287   -5.89278697998214    0.54948346816568
H         1.52180490885664   -8.15898607037368    1.51122733403023
H         0.11567461150837   -8.73526949192590    0.61779704476347
H         2.19235866449686   -9.33839228092628   -0.57624329093800
H         2.68960632767165   -7.64733200227654   -0.60791729009974
H         0.20976993815682   -8.81160560156276   -1.95091405616400
H         1.67695396855092   -8.28138569597683   -2.77123091032332
H         1.31550144818664   -5.96333768887406   -1.97806475938796
H        -0.08622788801522   -6.53851751289101   -2.88963528908356
H        -2.44738440574114    1.07863960632214   -0.95744446358232
Cl       -0.24866672516023   -1.17526277282494   -3.01553427240282
