58
 energy: -98.574594916790 gnorm: 0.000171955058 xtb: 6.4.1 (afa7bdf)
Ru       -1.29127553046865   -1.27493269538987   -0.05468281537665
C        -1.35423871168239   -0.49910561800954    3.32587741147034
C        -0.63302931462301   -0.51012468205138    2.01540622183747
C         0.19652007685133   -1.59050969193423    1.64256802426217
C         0.98007913651183   -1.53310582478321    0.45893548902051
C         0.88849789013936   -0.43921516875271   -0.40792916904509
C         1.73708024130206   -0.33630866489499   -1.65004427156516
C         3.13944772574556    0.14039042868364   -1.25057893948268
C         1.80286284024371   -1.65774205419966   -2.41706358862914
C         0.05770033841203    0.65934219356107   -0.02316063524431
C        -0.65376540811653    0.64155120700987    1.17249907540047
H        -1.44513474439955   -1.50120033455529    3.73444986727978
H        -2.34200616979687   -0.05465792580244    3.22970808440362
H        -0.78820733742245    0.10506118084714    4.03512303444220
H         0.32976482724233   -2.42324074860695    2.32521903699908
H         1.67206389897161   -2.33696913445686    0.24341564872204
H         1.28849967932853    0.41654497296120   -2.30797489644408
H         3.61664296058648   -0.58392825669880   -0.59510817293757
H         3.75271510075748    0.25782948003486   -2.13971816300046
H         3.09303635173471    1.09771519159347   -0.73633687770913
H         2.40201124865700   -2.39342902629288   -1.88798931117881
H         0.79899900461594   -2.05324144772404   -2.56613201872527
H         2.25578520830186   -1.49219549481206   -3.39114326882353
H         0.05702219729622    1.55125829382469   -0.64100293305995
H        -1.19658025583016    1.52260128188640    1.49692504886882
O         2.54964670629255   -8.61675370746886   -4.85504585340010
N         1.47959602465099   -8.92866112575619   -4.35083646736613
O         0.98545573938237  -10.04083465276116   -4.47568554206873
C         0.78025209742560   -7.95724806310481   -3.58700893445711
C        -0.43185670757057   -8.29862995300302   -2.98715128757432
C        -1.10758841436787   -7.35734463267355   -2.24224300411810
C        -0.58108564166500   -6.07056064995612   -2.09218409934014
C        -1.26751696708481   -5.06773637714765   -1.30141521194935
C        -2.44057262505532   -5.14862438024916   -0.55896259017150
N        -2.59015146375096   -3.93281834426905   -0.00663600709520
C        -3.53878458363079   -3.45715100536702    0.96865709060224
C        -4.12876737150369   -2.12225597223983    0.57704067084384
C        -5.50462472451719   -1.93584581473307    0.60011952038875
C        -6.04534383569335   -0.69622265875213    0.30068314507835
C        -5.14912148582437    0.31096608431550   -0.01361899145995
F        -5.58799057770998    1.54580775629157   -0.31072193023879
C        -3.78620557074799    0.07246277314263   -0.03064511170426
N        -3.28138474159386   -1.12715532543397    0.26262679286350
N        -1.57599712706086   -3.16247557875048   -0.39215336987345
N        -0.78595415917041   -3.80970671126276   -1.15259925451079
C         0.63315249095925   -5.74033151613917   -2.70337892460934
C         1.31492734764310   -6.67606670536315   -3.44790953684554
H        -0.81642486285814   -9.29799895541187   -3.11737687054214
H        -2.04304297100372   -7.62297635996391   -1.78004022591792
H        -3.12659539140971   -5.95199737910815   -0.39539195947257
H        -3.01409721966295   -3.33943732840791    1.92889064824934
H        -4.32769188923559   -4.20029298358814    1.08410846169732
H        -6.15516997973564   -2.75634967780996    0.85385820332856
H        -7.10668170734811   -0.51256183577634    0.30296421609284
H        -3.10460402190558    0.86497849688531   -0.31459304761101
H         1.02235838556938   -4.74262025132947   -2.58531022084609
H         2.25289365284151   -6.44445107929913   -3.92740915454794
Cl       -1.92440865899010   -0.96041054697410   -2.33889803490039
