59
 energy: -87.055802317912 gnorm: 0.000183779484 xtb: 6.4.1 (afa7bdf)
Ru       -0.47586671953682   -1.34475442676398   -0.54287767635715
C         0.05146003804674   -2.36773583393328    2.67679406028743
C         0.32425461179994   -1.40652971168526    1.56403746514093
C         1.43671850203770   -1.60472537954433    0.69428273126991
C         1.73538195790618   -0.67522318303630   -0.30160912186082
C         1.01404230871006    0.55625159949507   -0.40845454585748
C         1.50091332351343    1.67529209501226   -1.29702718573026
C         2.62501362779932    2.41022507457123   -0.55303449922025
C         1.98395390005602    1.19728833996444   -2.66619811426703
C        -0.05789576000439    0.76561828075042    0.46401698144210
C        -0.43967708918639   -0.22634389852013    1.40740923254034
H         0.27617712540000   -3.38633859184919    2.37020462885006
H        -0.98325322095814   -2.30632720821783    3.00380727275328
H         0.69282330457635   -2.12188607448669    3.52329568426855
H         2.07115878544623   -2.47215820597951    0.83332952008229
H         2.60021143063180   -0.83411466453335   -0.93467809028606
H         0.67361426736159    2.37625587960593   -1.45296917758444
H         3.45912805421737    1.73879062631270   -0.36260101176775
H         2.98244325092523    3.23874960371669   -1.15804440640411
H         2.27015380635119    2.80183365655647    0.39715492914569
H         2.93022708466140    0.66678188947051   -2.59283640538711
H         1.25023292566537    0.53705649407430   -3.12521565230445
H         2.13135487272972    2.05101820688921   -3.32235311782477
H        -0.56774708118772    1.72244354181510    0.46154789364864
H        -1.23797462202626   -0.01100041502800    2.11019141435567
C        -1.23832866359243   -7.41994404450965    0.54967213627687
C        -0.55135196242793   -6.67666770335745   -0.59167475537871
C        -0.70660872162186   -7.30186881658441   -1.96684131698782
C        -1.32266086551762   -8.52722666009567   -2.17285417233087
C        -1.42964079761909   -9.04780540004758   -3.45276803393413
C        -0.93006464312446   -8.34911822299727   -4.53724278079566
C        -0.31502740160802   -7.12345282248888   -4.33852901611847
C        -0.20203676860768   -6.60554802308858   -3.06216357598162
N        -1.05693880773638   -5.31853112196382   -0.65462386681605
C        -2.29227295878291   -4.92350700458842   -1.00456206868127
C        -2.25236605037626   -3.54301708434589   -0.93726700370988
C        -3.10891881515368   -2.40030881494792   -1.15142112561476
C        -4.44256662412293   -2.43777279922736   -1.54059619102679
C        -5.11981921849585   -1.24307262448878   -1.71105531922403
C        -4.43997420566682   -0.05155862535249   -1.49361361006726
C        -3.11105519964673   -0.09272862400059   -1.10924029369543
N        -2.45632736088734   -1.23534032012413   -0.92672932543714
N        -0.98655800863267   -3.22362077035670   -0.55048999835922
N        -0.28442034045216   -4.28571889177130   -0.38477730131058
H        -0.78620360101453   -8.39863552803052    0.67264663105770
H        -2.30073357357400   -7.53947298533785    0.35845264418809
H        -1.10829019684126   -6.86753595911705    1.47639685730142
H         0.51661550023537   -6.57553421191105   -0.36968253393588
H        -1.71811955810496   -9.09241668669985   -1.34563705609591
H        -1.90696758726105  -10.00432203096418   -3.60175251435687
H        -1.01592553719172   -8.75661980642670   -5.53305774489175
H         0.07943127638309   -6.57166383835347   -5.17840324616922
H         0.28380125417403   -5.65045367001871   -2.91923274809270
H        -3.06826800985252   -5.60540267142778   -1.27881452670197
H        -4.92103794577635   -3.38755802243449   -1.70955101808539
H        -6.15392548478807   -1.23847342394644   -2.01379249652007
H        -4.92832861995759    0.89929885364735   -1.62358546869105
H        -2.55206017920098    0.81993260299483   -0.94959996105504
Cl       -0.33129600810956   -1.62142594230635   -2.91686200769922
