63
 energy: -94.800767619957 gnorm: 0.000220223225 xtb: 6.4.1 (afa7bdf)
Ru       -0.49116953438497   -1.06137089590932   -0.96270852146847
C         0.06380329911882   -3.11326841681871    1.70921819428223
C         0.15219432207126   -1.75762279776507    1.08628102322208
C         1.33236086239720   -1.36249386563004    0.39208433028122
C         1.43938136387159   -0.07948325818360   -0.14748095438892
C         0.42811226075889    0.90791520925801    0.07000992157966
C         0.65121994520679    2.35589916686301   -0.29659192622125
C         1.57051645358617    2.98498292241429    0.75868488151412
C         1.23352422266845    2.53444062544549   -1.69876499774804
C        -0.71344069438225    0.52735089016921    0.78283511389648
C        -0.88146668830147   -0.80438563363376    1.24592003937359
H         0.49151795429474   -3.86406087572381    1.04832756732172
H        -0.96643844467241   -3.37204391345444    1.93872866861724
H         0.63449294326890   -3.11686009034207    2.63758021221071
H         2.16212507904722   -2.05493118392931    0.31653627527151
H         2.35479330486417    0.20933020195217   -0.65153705775055
H        -0.31486346126493    2.87138936592434   -0.26114513530414
H         2.54436207014755    2.50070426803782    0.75659445318363
H         1.71182475547911    4.03970442103076    0.53905848246298
H         1.13864419910884    2.89236268843444    1.75243506884784
H         2.27201066212948    2.21506887926264   -1.74271575944890
H         0.66624627684716    1.95862928329381   -2.42844758190249
H         1.19503311692706    3.58229289337289   -1.98420925258951
H        -1.45915030039189    1.27330849571213    1.03425045152865
H        -1.74820316230761   -1.05082943081475    1.84991547573519
C        -4.34536661126915    0.11088239186416   -2.38249152674185
C        -4.80401776439250   -1.02499306805471   -3.03763313786533
C        -4.01724924432851   -2.16327831143961   -3.03059089562463
C        -2.79897321491185   -2.12936205423441   -2.36209552369919
C        -1.84799457611916   -3.21088009929424   -2.26679893594937
C        -1.70455741408878   -4.53470507375593   -2.64544365615187
N        -0.50145561462932   -4.89850048197781   -2.17049876846942
C         0.05801617246574   -6.21890282709956   -2.16339174922447
C        -0.50425854332664   -7.00563541498899   -0.96144554394142
C        -1.99458249776072   -7.03588072907684   -0.99547065371650
C        -2.85281513819700   -6.29973387878103   -0.22739197290294
N        -4.14597383501043   -6.55281247633029   -0.58402118937579
C        -4.15362536729906   -7.46276646046871   -1.59991576248516
C        -5.21321453166571   -8.02818623186091   -2.29976165373375
C        -4.91093817744071   -8.92827457752418   -3.29852576388852
C        -3.58701524555251   -9.26576494848635   -3.59830284577946
C        -2.53222322223401   -8.71071087516091   -2.90986111219202
C        -2.80733272337858   -7.79251365517646   -1.89569025743883
N         0.07631742939497   -3.90274751091599   -1.52513685383678
N        -0.71527555124485   -2.89361960848924   -1.58152699380586
N        -2.36659642938267   -1.02386611766292   -1.71039692656237
C        -3.12132452575432    0.07005608354842   -1.73800610559688
H        -4.92286170246960    1.01965206404264   -2.37411527953094
H        -5.75140464792507   -1.01761705300913   -3.55100027439914
H        -4.31992712339843   -3.06362628407065   -3.53809402383723
H        -2.33753704383197   -5.19216123960107   -3.20235137178501
H         1.14071836392156   -6.12913284091031   -2.08436986386172
H        -0.21228502600307   -6.71586019859420   -3.09498520184518
H        -0.16760513296434   -6.53934947800338   -0.03578791782680
H        -0.10588687627319   -8.01869718317748   -1.00729228733707
H        -2.62671052771861   -5.61740702581420    0.56857435167412
H        -4.96200265396535   -6.16536316481448   -0.14200374177637
H        -6.23687604841186   -7.77672367656345   -2.06711913113960
H        -5.70923430732525   -9.38944052867581   -3.86146293014452
H        -3.39749470356550   -9.98064675867258   -4.38598819073189
H        -1.51630985610544   -8.99015835026101   -3.14563100784973
H        -2.72905448336181    0.94484621690725   -1.23573450989692
Cl        0.09164158928846   -0.57299952222744   -3.23318676313280
