73
 energy: -110.654077512474 gnorm: 0.000804342631 xtb: 6.4.1 (afa7bdf)
Ru       -0.34981525288413   -0.89753661340017   -0.36317691264990
C         0.62154074470165   -2.60499047997941    2.47551818143364
C         0.65402278787111   -1.37211146498335    1.63691403032313
C         1.67354900403766   -1.19545414347441    0.65992684798071
C         1.75509913829297   -0.00557952877896   -0.07497041154680
C         0.86920773566959    1.08383530578600    0.17031456852702
C         1.09155153909779    2.43703239953206   -0.46169419941501
C         2.26528842487616    3.11961174102342    0.25189047108216
C         1.34517985539172    2.35064228854892   -1.96691302842251
C        -0.13355010351148    0.90339764746545    1.13437258038187
C        -0.26795266563469   -0.31827375472892    1.83935889563332
H         0.85647986394273   -3.48132253265105    1.87679974772292
H        -0.34722308289443   -2.73572998192093    2.94882267401210
H         1.37635451282619   -2.51792927954274    3.25687921714246
H         2.42812148743297   -1.96302909698067    0.53316476110668
H         2.56661371835547    0.12518684805588   -0.78256272744973
H         0.19399203357738    3.04416656317009   -0.29996938416293
H         3.18038655417679    2.54800632486340    0.11960298151786
H         2.41811578301078    4.11232968856824   -0.16223647628322
H         2.06605613110410    3.21606361373684    1.31628027375743
H         2.32436975476258    1.92983283937560   -2.18161040016773
H         0.59226645877735    1.73012321018231   -2.45171560982109
H         1.30522312159534    3.34364190964832   -2.40620105203701
H        -0.77781262082905    1.73602512112923    1.39548893046110
H        -1.00469777073298   -0.39633184027584    2.63112786671811
C        -3.10925685805034  -10.28713523348985   -1.99889831426350
C        -3.01548705449095   -9.16053990717820   -3.02655212925545
C        -4.20827634426485   -8.21212064726576   -2.89645346357402
C        -2.92125472009668   -9.71487834885503   -4.44681994881553
O        -1.86760907677066   -8.31207526997827   -2.74284291589136
C        -0.61172919412933   -8.79230101739413   -2.76405256079790
O        -0.29062608338720   -9.95264001260786   -2.97359523802679
N         0.27581706110428   -7.82077842200284   -2.49925960843345
C         1.71009027681633   -8.07077933226821   -2.47197881436281
C         2.29859446512520   -6.74475037434118   -1.99916315653041
C         1.29703438104621   -5.71483796533909   -2.52304732393663
C        -0.05150739154592   -6.41673914804834   -2.35764970727213
C        -0.67924157136728   -6.15642256486409   -0.96530030951711
N        -1.13666009322017   -4.80334104292155   -0.88150527531936
C        -2.31352795355710   -4.30489526837100   -1.29408039527319
C        -2.20677433306215   -2.93775233384324   -1.09807457982574
C        -2.97413550845005   -1.73128442349032   -1.27934207860642
C        -4.26375370147142   -1.64270827815240   -1.79371029543053
C        -4.85280676288057   -0.39950245806954   -1.92851068230032
C        -4.11466800073133    0.71712722652257   -1.54781600875804
Br       -4.84280422029588    2.47610050549982   -1.71461947851197
C        -2.83297862808996    0.56389184473164   -1.03967539084688
N        -2.27538653666523   -0.63255987252910   -0.89302168574763
N        -0.96044565839189   -2.73009272504021   -0.58552905622660
N        -0.33408839329853   -3.84182029559999   -0.46279211197616
H        -4.00794056688610  -10.86883014552807   -2.17832079176738
H        -2.24591696846316  -10.94331585949179   -2.08006588543658
H        -3.14625149732843   -9.87978113360255   -0.99129589013304
H        -4.09548353989988   -7.37970423498472   -3.58509085708600
H        -4.27591097081612   -7.83417768978750   -1.88064783552056
H        -5.12234010709241   -8.74546184202716   -3.13469049231901
H        -3.80903094407644  -10.29710490912744   -4.67280893199229
H        -2.04889432195073  -10.35738259910822   -4.54257463939666
H        -2.83785787131270   -8.90213023932574   -5.16498197857181
H         2.05459553121372   -8.33647302839951   -3.47688718956935
H         1.92773490062830   -8.91158185151675   -1.81157178435372
H         3.29919405507198   -6.58758918182973   -2.39103294150551
H         2.34355255329198   -6.71985156613858   -0.91206528474152
H         1.33827929498852   -4.77292865348536   -1.98043230073718
H         1.48201137929807   -5.51689077806437   -3.57794659180504
H        -0.77631839338950   -6.12707354348112   -3.12472002214878
H         0.07015699306055   -6.31596835247398   -0.19080686505870
H        -1.51994533599226   -6.83543459844055   -0.82556276836046
H        -3.10608243348083   -4.91307269536279   -1.67594873768732
H        -4.78743396190167   -2.53630259503175   -2.08890534366171
H        -5.84945127778192   -0.29288081687848   -2.32493164514054
H        -2.24678574011780    1.42975968089076   -0.76030882031426
Cl       -0.03387102986083   -0.97283578605430   -2.72490569899967
