59
 energy: -99.740869891019 gnorm: 0.000193039352 xtb: 6.4.1 (afa7bdf)
Ru       -0.60928226003386   -0.52868926536533   -0.73798489232991
C        -0.00809504898746   -2.02469176778480    2.29120313156543
C         0.14048284849050   -0.85677988611689    1.36908378602840
C         1.28846237501809   -0.73805074580315    0.53179376701818
C         1.47162381358128    0.38652105243580   -0.27307034176643
C         0.57452135841307    1.49875291059745   -0.20730249090172
C         0.89719344552323    2.81652035179710   -0.87000683662959
C         1.78035602162310    3.62095299788559    0.09482889935376
C         1.58332137213024    2.66936632765355   -2.22750122106740
C        -0.53733063863227    1.39569566639619    0.63510008806408
C        -0.78569226922755    0.21218439964155    1.38058221399584
H         0.38026791825682   -2.93035973619707    1.83308915402264
H        -1.04735389368511   -2.17446191893865    2.57129946628593
H         0.56557760784310   -1.83424395209212    3.19845961709094
H         2.04183196231301   -1.51670545946967    0.55126640526585
H         2.36615561453616    0.46631401683680   -0.87866713547062
H        -0.03964318793438    3.36455469612811   -1.01975574823327
H         2.71466718967269    3.09666072342384    0.28205243909813
H         2.01089973930782    4.58845154125846   -0.34244345817602
H         1.27494440503649    3.78086260725869    1.04411174992626
H         2.60772519175339    2.32084379331633   -2.12148799118804
H         1.03952278722839    1.97156811201369   -2.86133941518891
H         1.61097827408399    3.63277083529878   -2.72987412651854
H        -1.18444089745965    2.25551891064332    0.76806687566969
H        -1.62171069667597    0.18607676529359    2.07195944307562
F        -2.59573606869348  -11.42656828580807   -1.90310940798492
C        -3.22066660390272  -10.28921627468988   -1.53168992370832
F        -4.29814859608426  -10.19053976500055   -2.34804210196536
F        -3.71478838806902  -10.51934751037144   -0.30390169166226
C        -2.33358650971301   -9.08594033429397   -1.61308809887668
C        -2.26284964288021   -8.18040305396762   -0.56205552203142
C        -1.44279883872624   -7.07310994554340   -0.67772677329403
C        -0.70049882952074   -6.86004328316855   -1.83476411832912
C         0.19425615539756   -5.65362166327091   -1.95048386463604
N        -0.53108051061611   -4.42471111179032   -1.74328992992538
C        -1.79865467471307   -4.14553801638541   -2.09199052543017
C        -1.98691019274717   -2.82956763242810   -1.70896090050883
C        -3.01467999852647   -1.81531257390646   -1.72046480092711
C        -4.31005632836807   -1.96897397167942   -2.20010762434767
C        -5.17321823465810   -0.88889333330694   -2.14279965014340
C        -4.71180683859144    0.30861132052695   -1.61149268892036
C        -3.40785125379256    0.38686151090591   -1.15433254303632
N        -2.57472018297375   -0.64844882641526   -1.19283650101722
N        -0.80666129873414   -2.42435640258805   -1.16208605161818
N         0.05009119479245   -3.38095211875546   -1.18274695574943
C        -0.78429238774684   -7.77160296785772   -2.88000369657795
C        -1.59584570656502   -8.88632636745625   -2.77398378179878
H        -2.83765226899329   -8.34923216956678    0.33438208820485
H        -1.38150755884380   -6.37666610496448    0.14291606837120
H         0.98729021172296   -5.68695735977427   -1.19909968493499
H         0.66162915007368   -5.62609771113745   -2.93881555298522
H        -2.44639893234045   -4.85164987744270   -2.56608229230218
H        -4.61661759237567   -2.91522562472891   -2.61267105750208
H        -6.18269080842648   -0.97462652881188   -2.50973947920778
H        -5.34953034756583    1.17442791433290   -1.55498463922515
H        -3.01854067681362    1.31207700126031   -0.75087011353952
H        -0.21334510106038   -7.62002769465944   -3.78179596832705
H        -1.66166167264370   -9.59991872060742   -3.58019866724599
Cl       -0.40014269846033   -0.26625649152563   -3.10845292840379
