60
 energy: -87.848107745567 gnorm: 0.000920190823 xtb: 6.4.1 (afa7bdf)
Ru       -0.87666016568902   -0.55269888207633    0.25857841919371
C        -0.94292627832725    0.45010877231942    3.59122151708615
C        -0.30443392402774    0.44818100054089    2.23891449432185
C         0.67047390848512   -0.51977386083701    1.90244331974345
C         1.38049366279716   -0.43870066905011    0.67762646574475
C         1.09431704878776    0.56582119718696   -0.25773377352262
C         1.87904225721089    0.68824081840003   -1.54162557606426
C         3.30734934439086    1.14641120546824   -1.22700194778584
C         1.87757125604409   -0.62928440124217   -2.31912624097304
C         0.10283383045148    1.53531618841247    0.08252496000008
C        -0.55943100221165    1.49823058708155    1.31182200487620
H        -0.98290783502875   -0.55384502105300    4.00660388786955
H        -1.94778683502270    0.86421577656902    3.55991996990181
H        -0.34602590746072    1.07137316304065    4.26072428213025
H         0.95561812800081   -1.26548937045415    2.63614307773121
H         2.17575420488586   -1.14638544298644    0.48138069272913
H         1.39860923745450    1.45060700241924   -2.16508020036615
H         3.82690060338594    0.40593011212414   -0.62502158099704
H         3.85872132953244    1.28638105874930   -2.15250302477387
H         3.29881238943043    2.09017399187724   -0.68634468468053
H         2.43038520249903   -1.40106827578608   -1.79267364171728
H         0.85289054180346   -0.96869580479524   -2.46534193825197
H         2.33333626737848   -0.48221253973076   -3.29437234016390
H        -0.07738129099390    2.36068266985111   -0.59978353864326
H        -1.22568225926160    2.30729984198426    1.58844518466259
C        -0.37979736367449   -4.89667209381216   -5.99979820705254
C         0.13568868746477   -3.97763441946652   -5.20454653640306
C         0.30171193490499   -4.06036666579501   -3.71858103458618
C        -0.14214580473563   -5.38291317986996   -3.09983665923506
C         0.14017143427049   -5.42771245077228   -1.59406787898817
N        -0.58370019250954   -4.38861943606036   -0.91390389361696
C        -1.88701364048044   -4.37521290988680   -0.58324429209845
C        -2.10459920126429   -3.11210064951642   -0.06477222167252
C        -3.17497336420039   -2.30890214779735    0.46924507132957
N        -2.77584211765551   -1.05878794167127    0.77662629457286
C        -3.66921220324118   -0.19468009304208    1.24863005336927
C        -4.99103560208366   -0.54931844739915    1.45213247518252
C        -5.42108729074887   -1.83223110682857    1.15442390005902
C        -4.50182487078392   -2.74766128834696    0.64386486745821
O        -4.75648700055129   -4.01623581730223    0.29700936748630
C        -6.08450432998574   -4.50823408320229    0.44043462040428
N        -0.90669100323924   -2.46743557004898   -0.12790196997960
N        -0.01077429216203   -3.23495044279471   -0.63522937123045
H        -0.74565304966870   -5.84370666549333   -5.64411906591127
H        -0.45628282054355   -4.73720871074543   -7.06223360183707
H         0.48306354026571   -3.04398682031260   -5.63014918340672
H         1.35482812464546   -3.88119896843158   -3.48580263771041
H        -0.26095661725392   -3.22839735260116   -3.28207253479353
H        -1.20789899215932   -5.53038856132211   -3.27847570031377
H         0.40226808901646   -6.20212821920323   -3.56780090037899
H         1.20054898786241   -5.25667590735443   -1.40832273750736
H        -0.15894569041451   -6.39288957616293   -1.18415064884663
H        -2.54986799893974   -5.20156723105879   -0.72327452922578
H        -3.32473450002193    0.80818847446067    1.45333010162825
H        -5.68403908684024    0.17815957496288    1.83979460962087
H        -6.45132687805858   -2.10376719449711    1.30920359401911
H        -6.78172024918022   -3.93989292969964   -0.17723722148940
H        -6.39920725805280   -4.48376661281244    1.48495260848700
H        -6.04703322174123   -5.53771393118739    0.09444286189607
Cl       -1.84536287279029   -0.34093074290488   -1.92110438727624
