66
 energy: -95.557718011894 gnorm: 0.000337736427 xtb: 6.4.1 (afa7bdf)
Ru       -1.02784624922692   -0.55192720418340   -0.33278818521139
C        -1.65367931336664   -0.76379126577447    3.06584471070802
C        -0.72712408058664   -0.39734956890563    1.94756558499628
C         0.15230558799142   -1.35561240260010    1.39179486835875
C         1.10351261108124   -0.98122736711247    0.41072511824754
C         1.14751904944971    0.33183572035870   -0.07554278483749
C         2.17498255192125    0.76999402377277   -1.09066102038515
C         3.48681274506822    1.07461466907773   -0.35586668511154
C         2.39237375309985   -0.26735435688184   -2.19185013295253
C         0.32800225995993    1.31684197480525    0.55916241687668
C        -0.55580119051541    0.96760308413284    1.57039410627119
H        -1.92887043157892   -1.81410899452701    3.01661806493713
H        -2.55671450761618   -0.15940367966202    3.04614190412946
H        -1.15207307884258   -0.58692989150836    4.01763647808040
H         0.16669350808897   -2.36490003840331    1.79065727080414
H         1.80966829163526   -1.71706513158427    0.05014227871472
H         1.81573238006631    1.69273044721183   -1.56076089660227
H         3.87023651886221    0.17762559749379    0.12429334140096
H         4.22910308635228    1.43213777674090   -1.06405974915330
H         3.33818078636845    1.83896680250156    0.40338913354428
H         2.91008861978809   -1.14520729423785   -1.81680318519763
H         1.43543620650481   -0.57174836804273   -2.61369441695745
H         2.99367696448256    0.16480663433043   -2.98727968447739
H         0.45978997317516    2.35836397194792    0.28758060386085
H        -1.09707297662292    1.73713768900328    2.10559563820229
C        -3.44848042146279    1.59037642602968    0.19501991672093
C        -3.96507913696047    0.24127925979186   -0.17013819590436
C        -5.33755483263224    0.01849039845746   -0.26985652247856
C        -5.81805184030437   -1.21421701516330   -0.67140425156394
C        -4.90742860754319   -2.20317748895188   -1.00524951766761
C        -3.55486340087573   -1.92478411880839   -0.87676509272049
C        -2.49062645755624   -2.83123660926864   -1.23717743144657
C        -2.32767486905396   -4.10285583168994   -1.75490712884907
N        -0.99682961167685   -4.26742433056933   -1.84508674001754
C        -0.28917468739565   -5.43016705732478   -2.33183466327231
C        -0.46815718927011   -5.54871407099994   -3.84809634928385
C         0.08211186652276   -6.89137015083065   -4.30982178652088
C        -0.77615738285560   -8.01174120163338   -3.73379918819214
C        -0.96542313594703   -7.87472647040101   -2.24974291953508
C        -1.37658264403223   -8.97945694581195   -1.50974186258743
C        -1.57030408085893   -8.89777530430190   -0.14466478050262
C        -1.34277746304031   -7.69842676607813    0.51073113379354
C        -0.93251140121028   -6.59513520067610   -0.21137871646987
C        -0.75274811481800   -6.66792939070787   -1.58961262999203
N        -0.35528219470860   -3.19545493466181   -1.42107827403040
N        -1.23799837585206   -2.33472124684350   -1.05983997862859
N        -3.09108715850927   -0.73532895802967   -0.42247625066928
H        -4.14150402985255    2.35582669667653   -0.14135012096026
H        -2.48137403784966    1.75810834620758   -0.28493219570531
H        -3.34548263177592    1.68258643992324    1.27411124380230
H        -6.01404741783194    0.82443963049289   -0.03885581526608
H        -6.87771348615880   -1.39395480065576   -0.74711674024760
H        -5.22262038093128   -3.16728182546655   -1.36496033318603
H        -3.02983183475499   -4.85873231654042   -2.03423534927325
H         0.76753771257641   -5.24837463737597   -2.10515231308564
H         0.05011223990324   -4.72616624594325   -4.34142538060625
H        -1.52798477604502   -5.48718194887044   -4.10111007752411
H         1.11349164140103   -7.00305668459181   -3.97182191613796
H         0.07669088624316   -6.94308447284573   -5.39844973068057
H        -1.76040721400664   -7.99843640596757   -4.21212588934751
H        -0.32828437548360   -8.98252346494186   -3.95239932537390
H        -1.54334142445338   -9.91659646901934   -2.02022727104080
H        -1.88912945800702   -9.76781037508896    0.40866803356366
H        -1.47980589166913   -7.62820320494874    1.57851940709360
H        -0.74297044208273   -5.66475667001166    0.30332220995374
Cl       -1.27863000472915    0.29495958950269   -2.54867898441043
