64
 energy: -100.589323056091 gnorm: 0.000320836728 xtb: 6.4.1 (afa7bdf)
Ru        0.74357512349520   -0.31772344454402    0.68648892703032
C         1.29160678670480    0.21491189331028    4.07041956237122
C         1.52852725592679    0.59161655637463    2.65075003031026
C         2.58625060979767   -0.01477944236193    1.90819670497700
C         2.89002472024528    0.40178213711855    0.59483915950957
C         2.08712893174320    1.36793678019145   -0.05548432498082
C         2.30746153587009    1.79868256796938   -1.48174901632350
C         3.67530429054440    1.41351901906863   -2.03953770362305
C         1.19087803612193    1.18696858622739   -2.34446168853722
C         0.99928179846153    1.94165843352078    0.67623326705930
C         0.74782938036412    1.58715390755335    2.01288275514223
H         1.46053873793793   -0.84763946569611    4.23161287761133
H         0.28875664552180    0.47840799839068    4.39371080272709
H         2.00218269237507    0.75491464648986    4.69804321810207
H         3.22522097513107   -0.74220663541925    2.39854698700139
H         3.74553026641395   -0.02460803215774    0.08845850084769
H         2.21187542486757    2.88945872613960   -1.51865235946220
H         3.76310016356642    0.33571462427746   -2.15436044602514
H         3.80189606844500    1.86118844794882   -3.02149055245100
H         4.47728609509904    1.77448200134599   -1.40053779293991
H         1.20563675549980    0.09849590815398   -2.25036400359572
H         0.21427541124042    1.56844876391580   -2.05589677760713
H         1.35780092085413    1.43778157334036   -3.38775953986123
H         0.41831631484800    2.73488198278681    0.21536063668787
H        -0.02068993299528    2.10702722071339    2.57400503075911
C        -1.51598282702549   -1.35354922396634    1.88371310555732
C        -2.26363115820156   -1.47749297540457    0.55226802127477
C        -1.82277124777450   -0.34909610579082   -0.38433158794603
C        -3.76875569169500   -1.40786742079094    0.80529394861143
C        -4.48585012901304   -2.52404044843644    1.21611954644389
C        -5.84611131559977   -2.38242481395962    1.44530924827268
C        -6.43114540287176   -1.13929774924995    1.26407437603507
C        -5.62148969986398   -0.08611368772332    0.86392303199145
N        -4.32599813220315   -0.21618116017221    0.63923976144463
N        -1.92775545631233   -2.76877566792400   -0.02682289745340
C        -2.19976564472811   -3.23390901335206   -1.25869122823310
C        -1.70544918458416   -4.53250292368721   -1.25924609344004
C        -1.69529302978773   -5.53661521174622   -2.30049969449093
C        -2.23312472702439   -5.27412258201584   -3.56532477992928
C        -2.21678991653844   -6.24466349718207   -4.54083883269224
C        -1.65809599621978   -7.49214021184418   -4.25909636686662
N        -1.64131585341760   -8.49194024390948   -5.26214503397736
O        -2.12795107616148   -8.23399662427409   -6.35583828617732
O        -1.14105349963416   -9.57833467174534   -5.00017515524033
C        -1.11622320799754   -7.76710069396427   -3.00239875832060
C        -1.13769919001535   -6.79210215086241   -2.03259785296105
N        -1.17974672648812   -4.75748063553892   -0.02523872182617
N        -1.31903247587513   -3.71383079921539    0.68914873802994
H        -0.40522015762423   -1.48731086476970    1.70587600062900
H        -1.80083277868354   -2.15613818140186    2.55990817931033
H        -1.74741337513276   -0.39515461928311    2.34490905141433
H        -0.70423719136589   -0.39976193974905   -0.55466269119407
H        -2.29315655634496   -0.43532300626606   -1.36013544485399
H        -2.12508293797743    0.60323341080646    0.04836223260057
H        -4.00233934450557   -3.47818786644175    1.35642191599401
H        -6.43548058015867   -3.22920130950500    1.76169224223374
H        -7.48499442603832   -0.98992000759537    1.43164304237705
H        -6.02342189844366    0.90570826169679    0.71427269042689
H        -2.70136799413346   -2.66159847659735   -2.00711789693277
H        -2.66398916467314   -4.31128165724213   -3.78367486763034
H        -2.62646201405034   -6.06563198899903   -5.52245470153666
H        -0.69173124848412   -8.74085922034907   -2.81545289152315
H        -0.72756234140865   -6.97797776582115   -1.05328660894909
Cl        1.17870658998727   -2.26862001024595   -0.46070499532136
