86
 energy: -140.935150640069 gnorm: 0.000207823018 xtb: 6.4.1 (afa7bdf)
Ru       -0.19112546614659   -1.29122788019550   -0.04862978869118
C        -1.33360570804397   -1.03398259461308    3.22867974856715
C        -0.22727745513052   -0.98178860274900    2.22418822764102
C         0.52592949159084   -2.14130952586611    1.91897904921840
C         1.66760632231708   -2.06751167942546    1.08125586900532
C         2.04215468051537   -0.85518542107574    0.48268551841913
C         3.27254008548512   -0.76654306345424   -0.38690622634893
C         4.52319408573453   -1.11052565063501    0.42818531470387
C         3.12992164507110   -1.69314364782683   -1.59631322773476
C         1.27301437984163    0.30923649233230    0.78111584837223
C         0.18368696367869    0.25750363972410    1.65547820095512
H        -1.81469657383468   -2.00832691017033    3.23120121215897
H        -2.08046226187241   -0.26698136907224    3.04302832729069
H        -0.91464636973665   -0.86003703381867    4.22020808815628
H         0.29540113395344   -3.07212012670213    2.42545892980139
H         2.27873904020045   -2.95069198816527    0.93534187851879
H         3.36530154674011    0.26210556721074   -0.75258166416401
H         4.49654620965745   -2.14509148077230    0.75748737164940
H         5.40985481810342   -0.96902477863515   -0.18398031138327
H         4.60223390995179   -0.46493056855852    1.29940228452571
H         3.04940336663645   -2.72863506709149   -1.27942583838713
H         2.23670275344397   -1.43425104693353   -2.16295748275949
H         3.99064010668652   -1.58658182396794   -2.25100108323838
H         1.59534775724157    1.26633937993796    0.38198941240120
H        -0.31060721374419    1.17498128555975    1.95406057424153
C        -5.79705037418888   -3.08880052389117   -2.88069248838937
O        -4.46251639043743   -3.09832867255699   -2.38570864842817
C        -4.06608596997713   -2.09349504892003   -1.59327750119981
C        -4.84809003842684   -1.01975216332470   -1.16854673289580
C        -4.27627171209387   -0.05921388394485   -0.35040745140073
C        -2.95178328777397   -0.17321683096687    0.03486400650025
N        -2.19532826486908   -1.19440507564126   -0.35259087481943
C        -2.72850086501390   -2.13594661397135   -1.15565188599555
C        -1.77926003318699   -3.16339871332579   -1.50252168627320
C        -1.72902769580107   -4.36462062493788   -2.18261055831356
N        -0.46182320630124   -4.79285148618370   -2.02580522623312
C         0.09014971412633   -6.04033087957983   -2.48660369184016
C         1.45917198430555   -5.79307937414684   -3.17149012097252
O         1.57557948059890   -5.83474568529637   -4.38343722865510
N         2.45060763249496   -5.54782015802588   -2.31348418134200
C         3.80858786445901   -5.35721875064368   -2.71746464051722
C         4.69866588184416   -6.62434556296493   -2.64872088515996
O         4.68960177318968   -7.71779545265264   -3.15323190359326
N         5.53981898409247   -6.03337964596372   -1.75475175609782
C         4.74735032333557   -4.83476561095091   -1.60757935330366
S         4.13185615189957   -4.88936891083265    0.10355615781839
C         5.11172727314317   -6.40640365842066    0.55802096782902
C         4.18683772610709   -7.61427413520969    0.52707802176875
C         5.71363299040641   -6.19959438477800    1.93761065703589
C         6.18093271190329   -6.52691166828146   -0.56862971457293
C         7.41713053626744   -5.67998415760698   -0.27676281283150
O         7.48914764771239   -4.49705514210449   -0.51082119376569
O         8.38136473454041   -6.39370178084680    0.25791282113418
C         0.23544662236400   -7.05669244813459   -1.37034035505200
C         0.50102965389984   -6.67529524281570   -0.06047343145592
C         0.64067332529647   -7.63662028112975    0.92652820556148
C         0.53721611558667   -8.98085541475410    0.61204223733469
C         0.28727310100771   -9.36375102830886   -0.69543933446177
C         0.13112371190997   -8.40641772711091   -1.68265803952494
N         0.24336194247673   -3.93632833014495   -1.30417580159696
N        -0.53366819728519   -2.96301633296718   -0.99073594702064
H        -5.87954670314747   -3.97960340079162   -3.49788000183835
H        -6.51719506759177   -3.14100442738806   -2.06251771479484
H        -5.98190971305542   -2.20327367760666   -3.49111469223017
H        -5.87638600223565   -0.92474626916056   -1.47305816906860
H        -4.85851284195934    0.78208204526342   -0.01440399494099
H        -2.48467066026767    0.57889530029822    0.65338826083984
H        -2.47747604292739   -4.89389860901647   -2.73122725244258
H        -0.57410168478977   -6.43136466812228   -3.26333039581383
H         2.27322064910028   -5.53181830337782   -1.31052849761595
H         3.84927111125924   -4.83538574255770   -3.67559496665654
H         5.27847354494155   -3.90056399342485   -1.78071252097074
H         3.81540286736994   -7.80863524538621   -0.47851183704419
H         3.33491810044349   -7.44931284725643    1.18060316622989
H         4.72182909058137   -8.49746332647229    0.86905716553304
H         6.39566517664099   -7.01434024397991    2.17059289180487
H         6.25745266225550   -5.25860692302478    1.98850975021472
H         4.92343135236633   -6.17904989012225    2.68292143292215
H         6.48085271029318   -7.56848089753322   -0.70151140209225
H         9.19152887372178   -5.87942353030665    0.45130199062418
H         0.58902125189860   -5.63061359312563    0.19883069574014
H         0.82845931380571   -7.33424100942037    1.94486520215249
H         0.65048705897823   -9.72971333915991    1.38019157850691
H         0.20765674236848  -10.40946564158862   -0.94903896818099
H        -0.06571614811437   -8.70816617379589   -2.70047360512221
Cl       -0.17116773796237   -0.26923729672893   -2.21766397792988
