65
 energy: -100.511974638546 gnorm: 0.000896887280 xtb: 6.4.1 (afa7bdf)
Ru       -0.92771092343625   -0.18956199616977    0.47744333724975
C         0.40593435626400   -0.00491289554755    3.67149311561001
C         0.59283689496179    0.00733498800041    2.18664571663828
C         0.86901039122851   -1.17744558188242    1.46884445611313
C         1.19096553941704   -1.13374191954038    0.08508949510198
C         1.15313515544299    0.07128300627994   -0.62133106701163
C         1.52766159322509    0.14642021256712   -2.08054472647725
C         3.05203406204400    0.05031423955286   -2.21351650124686
C         0.83288645708781   -0.93890187132212   -2.90445429164270
C         0.85768864994343    1.26781190892807    0.10354896830526
C         0.62794549912780    1.24508731719491    1.47770723372030
H         0.18833071495852   -1.00540733348569    4.03443376530309
H        -0.39085132585011    0.67106887496358    3.97380985116346
H         1.32636918424328    0.33516900798097    4.14620021809582
H         0.96438841614110   -2.11686293683629    2.00321466435943
H         1.49137049515470   -2.04502885348585   -0.41607031348806
H         1.20589268686589    1.12066135458373   -2.46520790582568
H         3.40897769175136   -0.90906584113732   -1.84806818946581
H         3.33479232657190    0.14801327926288   -3.25801587034355
H         3.54058568413630    0.84112860299733   -1.64919898856112
H         1.22733209278506   -1.92563243699622   -2.67666639756455
H        -0.23774206380913   -0.93194446875614   -2.70185234373349
H         0.98467746079563   -0.74889351580002   -3.96378891093378
H         0.90643652724832    2.21691313780432   -0.42050401815768
H         0.51786654376107    2.17303710373183    2.02819347807965
C        -2.26535581065316   -7.44410556273532   -7.73722954180638
O        -2.21449228386019   -6.62155492102615   -6.57251965042109
C        -3.06993825933237   -6.90566231347322   -5.59038982197699
O        -3.86885167832660   -7.82357342529119   -5.65767527622531
C        -2.94250053901627   -6.00165929667189   -4.43043245244287
C        -2.03842649320994   -4.93909720723457   -4.42386577744120
C        -1.95685269294741   -4.11509950806056   -3.32201080927195
C        -2.77199489264534   -4.33497790335085   -2.20963264410164
C        -2.66531579748235   -3.44671395443997   -1.06609345206707
C        -3.36777790741126   -3.43304926666505    0.13302762322258
N        -2.85364208028929   -2.40406309296515    0.83025766889809
C        -3.06885899105069   -1.94039068041126    2.19150276274144
C        -4.05533224674270   -2.83470718376837    2.92546813089375
C        -3.44066988906603   -0.46469804437782    2.14890674527248
C        -4.61006637075848    0.02284016161905    2.71143368852747
C        -4.85750225951620    1.38703904082687    2.70715707562458
C        -3.91241710848421    2.22863707706998    2.14421455601512
C        -2.77829927652030    1.67093015987108    1.58375526298002
N        -2.54278363790689    0.35745513321898    1.57794748659009
N        -1.90385948121630   -1.82989347253189    0.09743403205743
N        -1.77329350904046   -2.42926395244183   -1.01997739693622
C        -3.67326542631052   -5.40087035711957   -2.21740602594694
C        -3.75670556453897   -6.22437191303161   -3.31995929473828
H        -2.16163544607905   -8.49433409781057   -7.45964988079398
H        -1.43851984921626   -7.12126117382846   -8.36235598897657
H        -3.21899392280858   -7.30762445016329   -8.24971120565760
H        -1.41264234824243   -4.77106140144934   -5.28522704655086
H        -1.26790790961003   -3.28607429340339   -3.30589107505041
H        -4.14949787933149   -4.06196439615429    0.49813285214995
H        -2.08341089138546   -1.99989540280194    2.68810669269840
H        -4.14937275405162   -2.50170969817625    3.95383784646971
H        -5.03205899657571   -2.81842621743630    2.45194158818885
H        -3.68363995469530   -3.85517618725576    2.93702701197689
H        -5.32343644229142   -0.65088998832694    3.15231495178126
H        -5.76459073488524    1.77986387626479    3.13582260779082
H        -4.04855288306802    3.29653331404624    2.12446430857977
H        -2.03831547896652    2.29853262091919    1.10096586791781
H        -4.30814198914970   -5.58762222675724   -1.36738841125431
H        -4.44810260569421   -7.05270650708150   -3.34960416071235
Cl       -2.18764482771891    0.73249632944915   -1.33818862326250
