63
 energy: -95.956089567047 gnorm: 0.000260075388 xtb: 6.4.1 (afa7bdf)
Ru       -0.61266268455124   -1.09763679411269   -0.67119290647894
C        -0.35314102594215   -1.82685012956904    2.71348458087330
C         0.02344891371013   -1.00743079684437    1.52014072028035
C         1.16741791431702   -1.33714838656864    0.74071473724929
C         1.59483757524181   -0.50944762098231   -0.30521113998085
C         0.94152885990025    0.72945958893111   -0.57435128817107
C         1.52209251999045    1.74874534018106   -1.52268405567113
C         2.40929844054950    2.69294642959880   -0.69671525860236
C         2.32008330556049    1.13867638236098   -2.67394778135160
C        -0.19722564814810    1.05228877207063    0.18041184675700
C        -0.67251597937075    0.18014171933191    1.19255920811327
H        -0.14754041598735   -2.88020786701446    2.54437278016453
H        -1.40284270972829   -1.69940616414036    2.96399853715165
H         0.24223899257948   -1.50116432154957    3.56686288100214
H         1.74572380614870   -2.21841505550298    0.99493363844378
H         2.50004136481090   -0.76068721640831   -0.84321819205020
H         0.69696001909300    2.33085910384277   -1.94820839228993
H         3.23075005005011    2.14177268336852   -0.24498390298925
H         2.82363815930964    3.46007726795077   -1.34468350643798
H         1.83871705968377    3.17702678920431    0.09188711159898
H         3.26497437534673    0.72675997047549   -2.32890237247226
H         1.74761789594314    0.35516361605597   -3.16631524470412
H         2.54154921046990    1.90781366359212   -3.40915453733123
H        -0.66862530936463    2.01885079371963    0.04053010871732
H        -1.50907023764723    0.49109327748574    1.81083243676658
Br       -5.77178056406783    1.42866389728893   -1.42082780429764
C        -4.71834255270371   -0.16517009863326   -1.40785444984125
C        -5.27490991916171   -1.38914297849984   -1.76764245832127
C        -4.45852347138806   -2.50353945698564   -1.74148115567624
C        -3.12857101813480   -2.36332390215283   -1.35580563551509
C        -2.15035323202784   -3.41782633121640   -1.28356119667764
C        -2.04611650874428   -4.77989039894384   -1.51421024710989
N        -0.77203915701831   -5.07930856430372   -1.21873870501017
C        -0.09897435029032   -6.36011267677217   -1.34783381109726
C         0.67878700351033   -6.38462152693666   -2.66745029513915
C        -0.28076518407107   -6.53488101742407   -3.84020012505085
C        -0.99168236399412   -7.88120991411715   -3.74882932051608
C        -1.55403824539985   -8.15645137860741   -2.38297530177459
C        -2.51321220682944   -9.15368506718147   -2.22928231418122
C        -3.03454784148163   -9.46113357684449   -0.98746506845878
C        -2.59853169658332   -8.77297021086445    0.13423998308595
C        -1.64484995732537   -7.78348807316380   -0.00295037620757
C        -1.11775500878245   -7.47008923137973   -1.25255009227515
N        -0.10733134943313   -4.00780685696944   -0.83165592913870
N        -0.91702582359181   -3.01349536672071   -0.86794060445418
N        -2.60473079747512   -1.16374161073359   -0.99501916244848
C        -3.38563265550366   -0.08935484129804   -1.03215669533120
H        -6.30906454648704   -1.45980585379503   -2.06310189116027
H        -4.83639726318269   -3.47270424326689   -2.02061984549740
H        -2.75948617231895   -5.50595870616168   -1.84172994768640
H         0.60454774373330   -6.41617427720713   -0.51161952039736
H         1.26354337065821   -5.46896262480028   -2.75747377334746
H         1.36474728524064   -7.23120029797121   -2.64560689309941
H        -1.00929058472943   -5.72100067657161   -3.83530074159357
H         0.26853618030370   -6.47408885949632   -4.77978485660354
H        -1.79017145217767   -7.93981028340319   -4.49051623293167
H        -0.28005886078283   -8.67874295033835   -3.98370156139800
H        -2.85111912846614   -9.69362799782633   -3.10161898451066
H        -3.77805647165448  -10.23780154950209   -0.89237441706242
H        -2.99834802718604   -9.01157737147711    1.10737884028368
H        -1.29751516095547   -7.24949464313421    0.86872734812526
H        -2.94532907894110    0.86273910338056   -0.76644624899789
Cl       -0.54814638452057   -1.10428863145513   -3.05502451728317
