59
 energy: -88.998770673792 gnorm: 0.000308249084 xtb: 6.4.1 (afa7bdf)
Ru       -0.56998501988790   -0.96946359462231   -0.29889398976260
C         0.30045465546685   -2.27491620417266    2.73655336442915
C         0.42085232972147   -1.17538562073408    1.72958933957421
C         1.44655378795145   -1.20086100260598    0.74442595661178
C         1.60576099283833   -0.13207894977101   -0.13990732497858
C         0.88525367448289    1.09053294688716    0.03844311010813
C         1.26012811778177    2.33889197415607   -0.72135954706463
C         2.49591190633323    2.95975469932840   -0.05690104191705
C         1.51903670524453    2.07109293315918   -2.20506069153035
C        -0.09990108941070    1.12535893679796    1.02195415855096
C        -0.40649631074175   -0.02964363676170    1.79052905454180
H         0.60518149843817   -3.22732727071512    2.31024604752870
H        -0.71591049128156   -2.35135766099010    3.11505163365866
H         0.96019426483838   -2.05517516339599    3.57605561055847
H         2.12182096665476   -2.04697054927188    0.69990224011328
H         2.40019541632062   -0.16971841265018   -0.87617233677597
H         0.43267261628636    3.05174391228592   -0.63968355041723
H         3.34099807605859    2.27690851012762   -0.10484587479957
H         2.76640873255314    3.87736420612657   -0.57188522328645
H         2.29666382389407    3.19283863885322    0.98622057396520
H         2.47164848285022    1.56950129129177   -2.35779524311043
H         0.73312077484830    1.44896375260232   -2.63222045959153
H         1.54679302970313    3.01007671749939   -2.75122658714199
H        -0.61510739579933    2.05446852643455    1.22940701660465
H        -1.15133719764259    0.04313356036568    2.57621185926666
C        -2.76516743439733    1.36012350415215   -0.86822222520002
C        -3.39121837248475    0.00852547622754   -0.84975035196596
C        -4.75284949504863   -0.14722191874846   -1.10207414144203
C        -5.31669235300969   -1.40977194682635   -1.13501259179304
C        -4.49556856832948   -2.50835891169275   -0.94154085298794
C        -3.15017745370091   -2.28905845099374   -0.68494222985861
C        -2.16399753959848   -3.32767237198066   -0.50580334460126
C        -2.08676879539587   -4.70827476964928   -0.48344791236925
N        -0.78696537348936   -4.97408581511382   -0.26900720565213
C        -0.16169580714776   -6.27588417068595   -0.18690788051473
C        -0.32707393989263   -7.02243577387862   -1.46917863933075
C         0.53979857410781   -7.32418672948490   -2.47390298985564
C        -0.20894874735656   -8.04694348665546   -3.43741145614959
C        -1.48321445586848   -8.12856374997041   -2.95995466861234
C        -2.71079052800840   -8.75695179289504   -3.50894836135667
O        -1.56306518687949   -7.50500893888064   -1.76308939983507
N        -0.08359771665277   -3.86134318761076   -0.16562579698146
N        -0.89747191182304   -2.87714374491882   -0.30424049487882
N        -2.61377001469890   -1.04778507997588   -0.60126658644696
H        -2.74259724397011    1.77865951321054    0.13609909741747
H        -3.33745054811944    2.03008061453732   -1.50234073402302
H        -1.74718603342069    1.28751520649028   -1.26050752386361
H        -5.35392305243257    0.72906668585418   -1.27951052587220
H        -6.36904734109805   -1.53771373468565   -1.32806818953751
H        -4.87254897960330   -3.51514722666193   -0.99394272483647
H        -2.82255024454042   -5.47524095481100   -0.60314947867002
H         0.89659638855848   -6.11807146362935    0.01616092157146
H        -0.62594010540950   -6.83535744172026    0.63035880507539
H         1.57919112000739   -7.07593291149132   -2.52548094212240
H         0.15493328442901   -8.44897653903847   -4.36006017900674
H        -2.49247288029788   -9.20192556659436   -4.47385144304024
H        -3.07392190560594   -9.52953915650052   -2.83320880744467
H        -3.49843081932586   -8.01512363966994   -3.62741967487340
Cl       -0.50300886705722   -1.07494306595271   -2.68003856608935
