69
 energy: -97.007148149347 gnorm: 0.000234271750 xtb: 6.4.1 (afa7bdf)
Ru       -0.86594063691027   -1.29783602324646   -0.75641596832113
C        -0.21557786215758   -4.22598439075719    1.49585175692235
C         0.16741144914186   -2.80430264126271    1.23427763489072
C         1.46341081291940   -2.49372308594566    0.78132808012853
C         1.84800586563230   -1.18721649481248    0.55204830211761
C         0.94639723060246   -0.12167246986264    0.75354624020218
C         1.36769855393148    1.31121210502826    0.52060780902008
C         2.37183110741360    1.74120123341992    1.59452712434954
C         1.95419827639906    1.49242304679838   -0.88220744568975
C        -0.29052706508088   -0.40898440519486    1.35577335658402
C        -0.68746494075928   -1.74628141106017    1.58103824420401
H         0.30952105385063   -4.58718176300600    2.37981015575700
H         0.07042060857229   -4.85681142655271    0.65733776076227
H        -1.28454991668138   -4.32208705029321    1.66148782557400
H         2.16638703013169   -3.29735054697145    0.61482704001724
H         2.84939191312448   -0.97927636203848    0.20640170268071
H         0.47946010281815    1.94719481969525    0.61199645978349
H         3.26941017422540    1.12943339574012    1.55030043901428
H         2.65618176074427    2.77837874808856    1.43935229329264
H         1.93857449544666    1.64445326398930    2.58701658624491
H         2.95786414999123    1.07918298073923   -0.94139345502389
H         1.33958984620572    0.98103968083763   -1.62507533786665
H         2.01136132726774    2.54774966104985   -1.13408795118625
H        -0.89453930439571    0.40701545223017    1.74567026266457
C        -2.89986052411070   -0.85698770505711   -2.89590464802671
C        -2.10004024423155   -0.06039883853199   -1.84893164433078
C        -1.86161925758204    1.38515546533129   -2.22837158871221
C        -2.98517603759923    2.22575383245863   -1.68992747863618
C        -3.67286781782494    1.85356948116284   -0.60192775181999
C        -3.25955966639471    0.65609229060706    0.08612516436156
N        -2.55996821457817   -0.22340774639817   -0.53765852175910
N        -2.81231403541872   -2.25706044792385   -2.57155150798618
C        -3.42948315487207   -3.35787449149369   -3.03707462203792
C        -2.88902911057792   -4.41252018425318   -2.30859791839878
C        -3.18089339265655   -5.83242828143393   -2.36060209805907
C        -3.97505194136237   -6.37364115068754   -3.36729530664014
C        -4.24341899931022   -7.72928807366190   -3.39685254907154
C        -3.73602318314640   -8.59037739312453   -2.42942673278539
C        -4.01426555742786  -10.08387971750097   -2.42477860985763
C        -4.75461559163186  -10.44589754983409   -1.12867115030878
C        -2.68096755463842  -10.84322826674619   -2.49197799284268
C        -4.87640620099991  -10.52907266488520   -3.60948430591272
C        -2.94185611239880   -8.03622766015159   -1.42556928487724
C        -2.66479478991112   -6.68680024894562   -1.38752798380789
N        -1.97987088783267   -3.88523397907288   -1.45230491074086
N        -1.95552900292819   -2.62708116810452   -1.63230608759324
H        -1.77384772161015    1.49193489911854   -3.30832913921976
H        -3.16940227827984    3.16597772233779   -2.18269112565124
H        -4.45959241354380    2.45085790330625   -0.17596764247709
H        -3.52262637078146    0.49510822873695    1.12299736894434
H        -4.17592512562777   -3.32927863758690   -3.80099613421114
H        -4.38051711649414   -5.73957272800913   -4.13995311849173
H        -4.85962842931623   -8.10760705911106   -4.19522616787028
H        -4.16061675148011  -10.20515759410419   -0.25179206993177
H        -5.69410613074145   -9.90074604195490   -1.06719153188184
H        -4.97287952367571  -11.51115981769698   -1.11012988912355
H        -2.05258692321569  -10.62324764884317   -1.63391657181934
H        -2.13692659117288  -10.57057617631295   -3.39399395009812
H        -2.86421603157961  -11.91509758920485   -2.51185309732535
H        -5.85105798650998  -10.04735416911794   -3.58970741006925
H        -4.38616824040187  -10.31016212206898   -4.55526582683941
H        -5.03471654487276  -11.60408395238153   -3.55645690897717
H        -2.52950504643669   -8.66893929433133   -0.65507906115527
H        -2.04822705838428   -6.27570065843400   -0.60431461506097
H        -0.92437003956343    1.76372480218269   -1.79760314651073
Cl        0.77054015662395   -1.81642523064653   -2.35374810799961
H        -3.95018496363090   -0.54261738467257   -2.89799229644216
H        -2.46933046936578   -0.68634876955647   -3.88848499295939
H        -1.60468315068242   -1.95595049710907    2.12247405173704
