61
 energy: -95.192885216217 gnorm: 0.000548535948 xtb: 6.4.1 (afa7bdf)
Ru       -0.47384895339591   -1.59774717572562   -0.36543817016318
C        -0.24162327490627   -2.20654933299390    3.05727350970290
C         0.19432877101584   -1.48387716844426    1.82032344398347
C         1.27599681597663   -1.96264419310144    1.03480921891381
C         1.78826161156433   -1.21595099763382   -0.04062499216578
C         1.23868196871718    0.04821488391808   -0.36966305179897
C         1.88024230838411    0.95823204464136   -1.38713901193370
C         2.88616756567251    1.84846152317068   -0.64186816789681
C         2.56804019632363    0.21639319711224   -2.53219478977211
C         0.14089969681597    0.51878783335575    0.38432042648099
C        -0.37783571245241   -0.24000118229283    1.45662559307396
H        -0.09894467338201   -3.27914451202730    2.95466986238821
H        -1.28554555581141   -2.00434132723156    3.28357681865557
H         0.36089944906780   -1.86420344978378    3.89945951764092
H         1.76540138359689   -2.88817269172781    1.31750255972482
H         2.66399200846114   -1.57389195985417   -0.56503490792377
H         1.09926327005281    1.59629785998289   -1.81591337404564
H         3.66562560449950    1.24030677741424   -0.18860207546638
H         3.34963555657591    2.53741764228138   -1.34221999618670
H         2.39574530062925    2.42509847880135    0.13849162731387
H         3.47272643069428   -0.28481742011441   -2.19754965340929
H         1.89444866734920   -0.51734282637557   -2.97099291009947
H         2.84691573462608    0.92518471736657   -3.30760728108793
H        -0.24291980473332    1.51454534510053    0.19222455655393
H        -1.16282423735212    0.17970478090525    2.07780086033026
C         3.80817701550099   -7.29767057512652    0.44025961379279
O         3.17980530543353   -8.33965636455314   -0.28695189107285
C         1.94659875595431   -8.11415641886966   -0.80313790295151
C         1.36965403440229   -9.16665062235255   -1.51810173473914
C         0.12130814439976   -9.03581722940051   -2.08449971412685
C        -0.61045011925094   -7.85478110575028   -1.96237636307793
O        -1.84161126464655   -7.66067565995992   -2.50731598251232
C        -2.38789532597892   -8.67108136356481   -3.33897593754270
C        -0.03107315482768   -6.80129233761645   -1.23968041854237
N        -0.67614993860370   -5.56372028310041   -1.08005090335201
C        -1.98479198188952   -5.25642127891566   -1.20495664856066
C        -2.06007148160838   -3.90447219989517   -0.92955186243574
C        -3.04706222654486   -2.85437270380865   -0.84234141088811
C        -4.40784638384245   -2.98946781457906   -1.09197539560760
C        -5.21936636971770   -1.87479916399962   -0.97682882374860
C        -4.64348322666834   -0.66201316939354   -0.62064684662442
C        -3.28043485652225   -0.60388720027065   -0.38871961746712
N        -2.49460412895603   -1.67216570401650   -0.48266382901277
N        -0.78925694229326   -3.50025077545777   -0.65676895168061
N         0.02711386871337   -4.48499261393613   -0.74544460201041
C         1.23302685810688   -6.93325574770427   -0.66842918832270
H         3.95297008931576   -6.41496144288714   -0.18654140623675
H         4.77485461539242   -7.69818765619706    0.73641245571701
H         3.23034691545201   -7.03938420309960    1.33048008859473
H         1.92458824387867  -10.08465431174826   -1.61918731244032
H        -0.28668288312358   -9.86851558223287   -2.63121544804751
H        -3.32929611543294   -8.26421616379948   -3.70084306187080
H        -1.73298062577285   -8.88278118915874   -4.18626741038382
H        -2.57772409648871   -9.58632547522352   -2.77443013671842
H        -2.73116564236468   -5.97504905364372   -1.46187113922333
H        -4.80162608111649   -3.94983376305276   -1.37840888944326
H        -6.27736062145172   -1.94584259874825   -1.16836691701873
H        -5.23849673728937    0.23072493648533   -0.52859032249534
H        -2.80384971951951    0.33170500998393   -0.12855477227508
H         1.62694452913424   -6.08743902911217   -0.13333175376181
Cl       -0.67678557976091   -1.41380999203762   -2.74311417672845
