70
 energy: -104.693635572356 gnorm: 0.000344971832 xtb: 6.4.1 (afa7bdf)
Ru       -0.45916657116854   -0.91932102372221   -0.12493536788794
C         0.47209719765133   -2.56713396931742    2.71706000713026
C         0.62608074116214   -1.38964054180976    1.80746360275081
C         1.58583507206369   -1.40128178968601    0.75785123955602
C         1.78042186756401   -0.26873609415603   -0.03578845618735
C         1.17898173711013    0.98432645998191    0.30128532917842
C         1.61261195084202    2.26561944316878   -0.36692534271493
C         2.94546535037052    2.71001352344363    0.24940876496454
C         1.73705716598519    2.12589526748100   -1.88525089146886
C         0.26000712421490    1.00179082261024    1.34677439761668
C        -0.09761811475740   -0.19409155897604    2.02541178528017
H         0.67549893319922   -3.49525284272814    2.18900502564136
H        -0.52549518531792   -2.60266085910725    3.14808893112138
H         1.19121664804144   -2.47767924297841    3.53146269123247
H         2.18474894197709   -2.28888790604078    0.59280366070420
H         2.52353617375792   -0.29748294598739   -0.82431839210489
H         0.86289640625937    3.03480710789938   -0.15278617161819
H         3.71743012447068    1.96469110615813    0.07261889456146
H         3.26300162604460    3.64638901311127   -0.20096149255691
H         2.84430954846952    2.85746421734552    1.32192377213622
H         2.62198670128267    1.55705250702343   -2.16039073319693
H         0.86525860756530    1.62428959101232   -2.30421967060859
H         1.81835001617169    3.10855650710593   -2.34194889805000
H        -0.16266145694491    1.94400518990819    1.67105711380328
H        -0.78658196164377   -0.13901922879219    2.86176451839571
C         1.66629892203069  -12.72932736226713   -2.86437898667792
O         2.37090713580168  -11.56149599461235   -2.49627573710732
C         1.67815999537457  -10.38497827618807   -2.41873437275858
C         0.32713055028338  -10.23146329084643   -2.67017839185696
C        -0.27199026758312   -8.98301929701578   -2.56397531713467
C         0.47016901649614   -7.87284774035877   -2.21370736793859
C        -0.16677160785625   -6.51749458382575   -2.08350642181696
C        -0.45543670437019   -6.20442063152433   -0.60510514548704
N        -0.99479140127929   -4.88010171331074   -0.47087389936836
C        -2.27661489406105   -4.49548314200650   -0.59180452539332
C        -2.24743055591049   -3.11811253637632   -0.46264563714854
C        -3.15444708939350   -1.99577882509369   -0.48511786862098
C        -4.52362179236440   -2.08551975600753   -0.68896645258092
C        -5.26130790552409   -0.91415683930436   -0.73258818713356
C        -4.59677452178563    0.29250987697883   -0.60817332474757
C        -3.21726536785464    0.31849266058749   -0.41379882937136
C        -2.48622093163588    1.61407497316982   -0.33242921468046
N        -2.51655023585589   -0.81300825398825   -0.31135479637965
N        -0.94200311846414   -2.78684331060415   -0.28210006540424
N        -0.20376868938321   -3.83798790482186   -0.28795970351848
C         1.83155315072092   -8.02148245275103   -1.95305016876727
C         2.44429001351863   -9.25638913357433   -2.05071777338399
O         3.76834673371735   -9.49879281334677   -1.81879494053408
C         4.58907811011662   -8.41264627425078   -1.43416037686637
H         0.87861484944893  -12.96087771720559   -2.14217813900892
H         1.23612368328834  -12.63438047097300   -3.86533367327728
H         2.40852540984863  -13.52442916595620   -2.86156228204749
H        -0.27293527409741  -11.08000529384242   -2.95441377847220
H        -1.32654558362853   -8.89211788243523   -2.77153844299762
H        -1.09719897727976   -6.49171605683764   -2.65081513490189
H         0.50341539651270   -5.75397135595242   -2.48055144224453
H        -1.16774401128892   -6.92474189055047   -0.20236219079293
H         0.47268195654015   -6.24694662466097   -0.03514067101585
H        -3.08222333985984   -5.18093376595732   -0.74637903162433
H        -4.98344047710863   -3.05014055450069   -0.81744058345149
H        -6.32805404453670   -0.94183638203021   -0.88201757717664
H        -5.13258619444167    1.22511139518660   -0.66926129873756
H        -2.38039409116033    1.92193759721233    0.70612061977093
H        -3.03315471166687    2.38799891174382   -0.86191729619140
H        -1.49781199650154    1.50734104210558   -0.78733653023019
H         2.40954490739299   -7.15183506871238   -1.68688505996707
H         5.58119320874305   -8.83826907029094   -1.30169945570563
H         4.24857862328712   -7.97682538742974   -0.49141514236194
H         4.62148234468388   -7.64635394238567   -2.21324337592042
Cl       -0.53066986725210   -0.80664844819210   -2.50720532664413
