59
 energy: -94.181890334088 gnorm: 0.000662587063 xtb: 6.4.1 (afa7bdf)
Ru       -0.67690407969493   -0.84421535674611   -0.25292921755017
C        -0.29077157585666   -1.67107033545654    3.11145650814219
C         0.07764798762603   -0.85969715840800    1.90864445078005
C         1.14330345108739   -1.25723739220439    1.05599877562455
C         1.59000389249364   -0.43223285288011    0.01323918638760
C         1.01024300932966    0.84708616334960   -0.20106130982793
C         1.61202246033319    1.84387065979304   -1.15958933379367
C         2.63982453891032    2.67276829886143   -0.37376345902565
C         2.26482402269822    1.20742032099978   -2.38576886299742
C        -0.06702557729203    1.23630084651243    0.61854980309955
C        -0.53946864636348    0.38707469009941    1.64749520197821
H        -0.13659070482968   -2.73170498434902    2.93171432961100
H        -1.32513771056840   -1.50160327838609    3.39948219263187
H         0.34645521026367   -1.37450733297084    3.94567629841938
H         1.66410472197690   -2.18650432436235    1.25886604853220
H         2.44920001794004   -0.73451301289098   -0.57064920295915
H         0.81573868358612    2.51255092819680   -1.50536525278146
H         3.43629642576169    2.03276184240177   -0.00101402826138
H         3.07722906020673    3.42248229980227   -1.02698954571679
H         2.17417358602131    3.17684974900130    0.46949435630218
H         3.18621809275311    0.69244007280927   -2.12591313887862
H         1.58492559138240    0.50249975896574   -2.86000874959822
H         2.50844238970266    1.98055387173628   -3.10965945556394
H        -0.47398809766863    2.23616844990613    0.51610902471111
H        -1.31226514874232    0.74495581473961    2.32061277703844
C         3.49867146093498  -11.05587148056905   -1.63638158149263
O         2.79078310723614   -9.83101616367152   -1.44823013638339
C         1.54545871715683   -9.77075225227967   -1.90975818168438
O         0.99670360913540  -10.70187118608244   -2.46871929544163
C         0.90504877386063   -8.45652586503412   -1.66994166347742
C        -0.40285143129486   -8.26383728993403   -2.11107954445857
C        -1.03667524320003   -7.05264449750738   -1.91906093752437
C        -0.35504384929784   -6.02296789535107   -1.27543469093276
N        -0.96131882226327   -4.77440300955199   -1.06808690950975
C        -2.26433418159401   -4.43366535570354   -1.19908097323123
C        -2.31481138757171   -3.09343890559889   -0.87738178815508
C        -3.27757454108367   -2.02165714233762   -0.76813741831610
C        -4.63991735280549   -2.11705197568994   -1.02508275915479
C        -5.42456173054511   -0.98589037435679   -0.88213809903199
C        -4.82061046230962    0.20171670553095   -0.49039659005338
C        -3.45683747478131    0.22041026563832   -0.25336218154956
N        -2.69690101680357   -0.86326407616457   -0.37596186804003
N        -1.03526463978503   -2.72594135242632   -0.57624273422177
N        -0.24088710317869   -3.72341763719103   -0.68778989382504
C         0.95361753417657   -6.20707156509682   -0.83261219320423
C         1.58190998658683   -7.41919270789485   -1.02973842475177
H         3.62143376930389  -11.25684527650042   -2.70161481759379
H         4.46087477432776  -10.91684171868097   -1.15377399502888
H         2.94798231715303  -11.88140902192091   -1.18327554543766
H        -0.90356022033494   -9.07914603317093   -2.60962423206893
H        -2.04020577632634   -6.91951676748427   -2.28533039729231
H        -3.03531978809662   -5.11621017985617   -1.48237959734319
H        -5.05882800860448   -3.05838530858793   -1.33778913731514
H        -6.48324083557409   -1.02601704465741   -1.07882583051484
H        -5.39442226167984    1.10561359901897   -0.37435253707149
H        -2.95938274872302    1.13646391065009    0.03577382905603
H         1.46275161806295   -5.39383002260165   -0.34380125508826
H         2.59351533227186   -7.57356901147476   -0.69302207088929
Cl       -0.86294672539843   -0.63093610199640   -2.62796594525980
