59
 energy: -87.002658719434 gnorm: 0.000479189887 xtb: 6.4.1 (afa7bdf)
Ru       -0.38614673422984   -0.70646238681512   -0.27300417079167
C         0.30227651171086   -2.49674815279828    2.68401574411812
C         0.62833554602442   -1.39566939940535    1.73404571680804
C         1.49200944401786   -1.62726119996275    0.63545264606133
C         1.91074797034019   -0.56653470916666   -0.19981289050642
C         1.45108317374003    0.74997340399332    0.00345372604726
C         1.99421840573308    1.91327751360804   -0.79137137079418
C         3.40413465270599    2.24396275049848   -0.28741838346375
C         2.00559423866865    1.62526687242966   -2.29488688621988
C         0.51951371882221    0.96190704873694    1.05112364394712
C         0.11547051734499   -0.08519926085775    1.90896562686215
H         0.05540106630840   -3.40817099729075    2.14283437888265
H        -0.52078152525877   -2.22902213207725    3.33990365602396
H         1.17813612098632   -2.70654606829821    3.29736438325410
H         1.91523074137109   -2.61547161396767    0.49457248246429
H         2.64043852214442   -0.76738137235447   -0.97529646898385
H         1.35523317042327    2.78341709255661   -0.60734615335776
H         4.07583623486028    1.40385568267045   -0.44559487735232
H         3.79477731845603    3.10143819959340   -0.82774676634212
H         3.38852998650374    2.48071504681380    0.77338055269623
H         2.80463456516714    0.93690017717682   -2.55821505218579
H         1.06144110271266    1.18393633207485   -2.61636574812161
H         2.16430666021026    2.54586988951919   -2.84947159368756
H         0.18329444939552    1.97276024784585    1.26088034853602
H        -0.49880951325776    0.14265346757786    2.77278303684592
C        -3.87789773248880   -1.05450813449985    1.83804858488784
C        -3.86958048734080   -0.98429173339974    0.30220969005681
C        -3.41009318591583    0.39894011425722   -0.10890301218616
C        -2.18846239089920    0.71643227607989   -0.70934873745373
C        -1.91441685243106    2.06066311711721   -0.97517623946591
C        -2.83095964555568    3.02974347094364   -0.60762247719566
C        -4.01369637868499    2.60839124493932   -0.01243431770420
N        -4.28730203079436    1.33995235601424    0.22001618340613
N        -3.07325389707525   -2.09383770381717   -0.18227558345967
C        -3.51770222294480   -3.34716687953610   -0.39878638524801
C        -2.38033422457945   -4.14324789637609   -0.46816116465323
C        -2.23989921352000   -5.56986255511351   -0.70062570243436
C        -0.97182561248277   -6.10423709647270   -0.92616512517387
C        -0.81922599984744   -7.45690438730376   -1.16029367870662
C        -1.92719152188829   -8.28996518643348   -1.17034927317770
C        -3.18970530929237   -7.76492729394338   -0.94403780410262
C        -3.35049192345220   -6.41218679620751   -0.70977192043432
N        -1.32038289636304   -3.32907711769675   -0.27536310262305
N        -1.74345478143457   -2.13618691883513   -0.10144679301540
H        -2.86257345248226   -0.94405492636636    2.21381571713301
H        -4.28318462723402   -2.00539035280989    2.17082502258889
H        -4.49290577485007   -0.24940460247025    2.22471832009730
H        -4.88940113036719   -1.12038220154953   -0.06964751732750
H        -1.56793419371263   -0.04434517334905   -1.31105051944660
H        -1.00282639764410    2.33366885797531   -1.48786473381282
H        -2.64415732247389    4.07397807603515   -0.79195285851827
H        -4.77740913450312    3.31070854110858    0.28748932223235
H        -4.55565587475765   -3.58324908162506   -0.49212184270024
H        -0.11986841889845   -5.44304235309038   -0.92489747207670
H         0.16377632830489   -7.86556831227408   -1.33875126456303
H        -1.80718637170502   -9.34663974856560   -1.35511857752695
H        -4.05156096060005   -8.41465784889606   -0.95090436704688
H        -4.33648026655421   -6.01445497475206   -0.53034948400177
Cl       -0.18993744042437   -1.57234821121897   -2.52402146710645
