59
 energy: -90.628661754712 gnorm: 0.000188079903 xtb: 6.4.1 (afa7bdf)
Ru       -1.03649743035470   -1.18024578517868   -0.02787386330302
C        -1.11772192843389   -0.34656062942350    3.33983047173027
C        -0.38729770627499   -0.39056017579685    2.03491766527291
C         0.43019708722669   -1.48837602608575    1.68735271513418
C         1.22366812604119   -1.46177803765111    0.50928588637876
C         1.15467704271774   -0.38120093747205   -0.37642108968116
C         2.01651396759062   -0.30658933657603   -1.61156200678105
C         3.41232801614579    0.18610633243443   -1.20804459203575
C         2.09733077805614   -1.64525418073421   -2.34593481382968
C         0.33563112922571    0.73544934707998   -0.01729848748086
C        -0.38549726078705    0.74724030632579    1.17295829688706
H        -1.24335841290128   -1.34234883293708    3.75478847706139
H        -2.09074291589805    0.12672932913632    3.23192894102250
H        -0.53821516049715    0.24443118418925    4.04916230035493
H         0.54504234515124   -2.31227048988182    2.38379981843255
H         1.90365113943496   -2.28042064601469    0.31203632044675
H         1.57124614969356    0.42732888761751   -2.29265125016499
H         3.88497100574461   -0.52182085313458   -0.53161447276116
H         4.03449611404174    0.28665971208514   -2.09298596679722
H         3.35550014237918    1.15400980319464   -0.71522108324601
H         2.69631161765497   -2.36526548649960   -1.79502033879957
H         1.09789725994172   -2.05309590922412   -2.49320387598971
H         2.55641997932668   -1.50002873218293   -3.32042207490923
H         0.35259492818298    1.61646276078543   -0.65017939404259
H        -0.91906262054644    1.64028765116274    1.47895542491664
C         2.97576912666830   -6.38256110683765   -3.78782763067261
C         1.62955986171593   -6.69868022424793   -3.21361381429477
C         1.07641474567589   -7.96739318773755   -3.35479863168289
C        -0.15894267887625   -8.26513113079394   -2.80515313275933
C        -0.86159983903676   -7.30618814138768   -2.10022456515169
C        -0.32074775387701   -6.03094495572426   -1.94659211089328
C        -1.02155891264454   -5.00140901708730   -1.19945389174741
C        -2.21737829042498   -5.05669827215434   -0.49454351984745
N        -2.37423038718483   -3.82627105069372    0.03208394950044
C        -3.34715407236928   -3.32721223475024    0.97029815592962
C        -3.90016701669138   -1.98623178825711    0.54742192872359
C        -5.27214659990393   -1.78606297899865    0.52290888378360
C        -5.76681402934878   -0.53033025014269    0.19574013199867
Br       -7.65103132609656   -0.21435644588431    0.14615778543671
C        -4.86929998059776    0.48962401678128   -0.09359501292937
C        -3.51997691644870    0.20082983394370   -0.05887820584532
N        -3.03049657307813   -1.00342254289822    0.25568870901463
N        -1.34136291374682   -3.07667546262917   -0.33152741622229
N        -0.53318386018436   -3.74657720425154   -1.05623795165847
C         0.92016232764811   -5.73920745107441   -2.50869814989364
H         3.15187840757428   -6.95074235791481   -4.69785850562295
H         3.75389410927687   -6.64766108994727   -3.07227482459332
H         3.06341698987494   -5.32208324483735   -4.00819749544778
H         1.61672147885028   -8.72613631591532   -3.90184853865834
H        -0.57556879264975   -9.25350091220247   -2.92875449538955
H        -1.82342565029513   -7.54860276055307   -1.67837949124054
H        -2.91655084411729   -5.84923597993166   -0.33909894535221
H        -2.85489992961221   -3.20601364624512    1.94724124209575
H        -4.15076896134005   -4.05714294272558    1.06573667982824
H        -5.94554041754308   -2.59483739525235    0.75682412847604
H        -5.20721602255684    1.47940912995310   -0.35136001374955
H        -2.80075890771310    0.96906353180852   -0.31589519546788
H         1.32172109620805   -4.74517900730624   -2.38951980795917
Cl       -1.64058986000134   -0.91194066933172   -2.32654725551818
