59
 energy: -97.753216470397 gnorm: 0.000900203438 xtb: 6.4.1 (afa7bdf)
Ru       -0.44170788928686   -1.17237460673217   -0.40757335499155
C        -0.19175012623276   -1.79609081226173    3.02681586853111
C         0.24870002531031   -1.08322151538338    1.78726686003266
C         1.30201540882479   -1.59208867933274    0.98441026699102
C         1.82757309061444   -0.85195440972774   -0.09322576366445
C         1.31712719031064    0.43065373186837   -0.40587061896202
C         1.97532540658342    1.32911610573990   -1.42109833780772
C         3.00818014951720    2.18609932593364   -0.67301565634019
C         2.63734710519336    0.57590234772045   -2.57369486828180
C         0.23308222045040    0.92389663356674    0.35873542803839
C        -0.28906515386812    0.18053820392571    1.43617772641548
H        -0.08075554772459   -2.87155423779375    2.92150025837335
H        -1.22481974390953   -1.56324478658041    3.27058163494576
H         0.43258382736022   -1.47312973352252    3.86029188089482
H         1.76831430510192   -2.53284388412727    1.25621084307464
H         2.68974831138898   -1.23177886895820   -0.62525273802096
H         1.21001178237064    1.99207311701590   -1.84000062747438
H         3.77550090016887    1.55435173857297   -0.23226935694038
H         3.48290173729018    2.87090810144814   -1.36981568203581
H         2.53779948137220    2.76667159592425    0.11658966799403
H         3.53149381265753    0.05199072486743   -2.24709994955428
H         1.94332384970556   -0.13867804538135   -3.01167184708792
H         2.92848951240549    1.28178202551128   -3.34703660128870
H        -0.12714502899400    1.92979899842947    0.17311843762494
H        -1.05226043627718    0.62112119953637    2.06999466862602
C         1.92135136701543  -12.13366199823346   -3.22247007682257
O         1.30862016114616  -10.87392189963812   -2.94939505553661
C         2.00037117077238  -10.00818515861815   -2.21479515156058
O         3.10928436544467  -10.24427097980477   -1.77511650571070
C         1.27849924403406   -8.73215624715935   -1.99461743027020
C         1.90629681275817   -7.73258044941226   -1.25258746129686
C         1.27016412255980   -6.52925695408618   -1.02978648808471
C        -0.00409473847072   -6.32138941352752   -1.55250981007473
N        -0.63343271575101   -5.08760613640358   -1.31813050082560
C        -1.94694898558088   -4.78472835087760   -1.40957758370067
C        -2.02637073777689   -3.44918123974845   -1.06565662025514
C        -3.01447922816496   -2.41118033010647   -0.91073744998474
C        -4.37752409198035   -2.52935013877567   -1.16457147811614
C        -5.19420970910777   -1.42813355816052   -0.99129325400852
C        -4.60570859873214   -0.23874733176357   -0.57118683916819
Br       -5.65647189499953    1.33641507791533   -0.31784970440904
C        -3.24018450068552   -0.18498583703335   -0.33150284415157
N        -2.45882517954332   -1.24777998969731   -0.48591730222508
N        -0.74819959280715   -3.05027240592699   -0.79371399634341
N         0.06844182730193   -4.02434502477070   -0.94162362595412
C        -0.63678896732850   -7.31120220470315   -2.30018026975476
C         0.00519909612617   -8.51457040789814   -2.51765950082241
H         2.06926858419974  -12.68671190320769   -2.29392588340643
H         2.88974136992048  -11.98363090345354   -3.70184178578313
H         1.23706173120381  -12.65794371762955   -3.88198470065753
H         2.89291117789262   -7.92419988235199   -0.86091989224023
H         1.74451360935811   -5.74867493317990   -0.45999592906329
H        -2.70575945123676   -5.48915533579682   -1.67418338435585
H        -4.78228498498302   -3.46832766091966   -1.50260288314573
H        -6.25328685601794   -1.48108790225863   -1.18425457906071
H        -2.77439131016424    0.74195863356742   -0.02360768411765
H        -1.60998406632610   -7.14647362440939   -2.73086589682574
H        -0.47035264801348   -9.28905140940721   -3.09626159555974
Cl       -0.71431457240300   -0.84389665279307   -2.75316797580248
