64
 energy: -98.368773795119 gnorm: 0.000416039806 xtb: 6.4.1 (afa7bdf)
Ru       -0.74015106260249   -0.82829968911291   -0.28279003662074
C         0.03547474322833   -2.64657692011142    2.51091864682814
C         0.24543501490068   -1.42604172334550    1.67209260347489
C         1.25532041193641   -1.39656791155806    0.67073977295503
C         1.50577524095224   -0.22660411352740   -0.04917104918584
C         0.90276534750489    1.01570180380761    0.32422030909630
C         1.38928285543107    2.32289405718900   -0.25024321801371
C         2.70158470155931    2.70255003267265    0.44817397033369
C         1.57945386332799    2.26369808956361   -1.76702043055101
C        -0.06912147697576    0.99151668592548    1.32131098815706
C        -0.47378463521299   -0.23330643807842    1.91797323756919
H         0.21356570303208   -3.55176387373140    1.93542559682649
H        -0.97006102367437   -2.67178245044337    2.92383052384658
H         0.74385046595466   -2.62859729603832    3.33944797503862
H         1.85151255987001   -2.28240642177887    0.48776179834609
H         2.28814262777110   -0.22480412848648   -0.79918277593467
H         0.64530273617163    3.09458255088737   -0.02621337639482
H         3.46589394555228    1.95111347699774    0.26391674051323
H         3.05776506848427    3.65506427132446    0.06578056824579
H         2.55478906670250    2.79238502636907    1.52169154516487
H         2.46749643246122    1.69595683030402   -2.03407938111889
H         0.72038617183735    1.79929813578141   -2.25015896017765
H         1.69484873049061    3.26805109033489   -2.16524188309563
H        -0.49628071542315    1.92127363632832    1.67460027855310
H        -1.20384564526171   -0.21248874644302    2.72044115830719
C         3.16367500952364   -6.67270126902924    0.38535270423443
O         2.37025778174225   -7.74510790167388   -0.09345337824411
C         1.09967132014987   -7.48325438592686   -0.48752520380458
C         0.35906080063615   -8.56824113682979   -0.96243992206613
C        -0.93834322889269   -8.40187280072968   -1.39220457963824
C        -1.55962864249203   -7.15330070423762   -1.36499709455520
O        -2.83389444215963   -6.93119293832299   -1.78703426253084
C        -3.56437534581121   -8.00506680622954   -2.35634283908744
C        -0.81772723361823   -6.06613823831332   -0.87865992205750
N        -1.34271876391628   -4.76508438435309   -0.81270555583610
C        -2.61930304896179   -4.34105002678980   -0.93161653649305
C        -2.55779806435296   -2.97084281030456   -0.76398660998299
C        -3.44200045972608   -1.83040006749180   -0.76550954515070
C        -4.80780335016473   -1.88541701139754   -1.00131869102123
C        -5.52103089670240   -0.69823030066696   -1.01944780202235
C        -4.83565348000609    0.48958463857949   -0.83959739324426
C        -3.46026929562930    0.48101211281752   -0.61507219371347
C        -2.70703579437212    1.75846752484277   -0.47309507319631
N        -2.78531707299436   -0.66784178865501   -0.53639192126787
N        -1.25022333197390   -2.67177150798797   -0.55554185425799
N        -0.53180833911274   -3.73324416191081   -0.58257715705037
C         0.49743041164005   -6.23571596175450   -0.44782093351080
H         2.73195346736292   -6.24190121091817    1.29147037862544
H         4.13090134077588   -7.11296490483253    0.61591933620381
H         3.28500334368955   -5.90300446264762   -0.38017151714010
H         0.82614718867656   -9.53876005136104   -0.98867388648186
H        -1.47409316068722   -9.26156761902152   -1.75623334414196
H        -3.73429741791081   -8.79780517687907   -1.62494855978547
H        -3.05621700966412   -8.40778590547971   -3.23455370135091
H        -4.51754686099295   -7.57466679373285   -2.65480610935001
H        -3.43911525948802   -5.00043814181528   -1.11026134433075
H        -5.28129621047777   -2.83656513913402   -1.17283339681058
H        -6.58471763906654   -0.69925054202685   -1.19160590314665
H        -5.35135568049836    1.43457773981318   -0.87975632253758
H        -2.64685577821516    2.04587659872504    0.57480142482949
H        -1.70021716167004    1.63969107038118   -0.88213588817352
H        -3.21250025208544    2.55274419442661   -1.01357506239558
H         1.02166724006336   -5.36395675109227   -0.09836149008142
Cl       -0.71036681064188   -0.58029395288801   -2.65462145161641
