62
 energy: -102.902643041250 gnorm: 0.000795781691 xtb: 6.4.1 (afa7bdf)
Ru       -0.70188137321204   -0.91544720921602   -0.49897798868103
C        -1.13095201731233   -3.08015148917939    2.26301783921357
C        -0.44909958123513   -1.91700891751907    1.62314046883363
C         0.74127618301463   -2.09515934563274    0.86813353063928
C         1.44572361390748   -1.00060910579759    0.36131011289706
C         1.05912862701926    0.33646708101684    0.67480127788978
C         1.87465194829718    1.55435045842432    0.29731050836969
C         3.17631262466139    1.22005997628975   -0.42644643717557
C         1.02766296516174    2.50068853769559   -0.56608187180501
C        -0.10431941995372    0.50583672298145    1.43104819337851
C        -0.88839462333101   -0.59842650165460    1.84214731493539
H        -1.23063875350699   -3.90273916873381    1.55858031352076
H        -2.11310969141110   -2.80454351990881    2.63583886111246
H        -0.52661769687263   -3.42700295356975    3.10042168468683
H         1.13488047055296   -3.09507126380642    0.73086532644142
H         2.37004491651116   -1.17843145929896   -0.17499975666006
H         2.12582397700148    2.07344102421898    1.23141322173414
H         2.97513786275501    0.73845455691917   -1.38184098928141
H         3.72432784540249    2.13725768988432   -0.62683586174425
H         3.81316188123432    0.57568214305360    0.17511166123595
H         0.65313398017357    1.97161611391229   -1.44266710755746
H         0.18353393427116    2.90363992301114   -0.01363146270083
H         1.63590413062199    3.33423052967921   -0.90655216025806
H        -0.37073373557393    1.49973841886168    1.77088494964304
H        -1.75319001127109   -0.42723414543388    2.47408963933159
C        -3.65755170670035   -1.91483850433061   -4.18694125155743
C        -2.71718181392348   -1.50599696981766   -3.06270573561738
C        -3.25573819295342   -0.43865543677984   -2.12005943168432
C        -4.49569168444760    0.14428233018496   -2.34686581188166
C        -4.92608641253764    1.19960397094328   -1.56046882512094
C        -4.07940815231917    1.65829155997674   -0.56586693867166
C        -2.87316445603883    1.01217532565994   -0.37612260911570
N        -2.46358604434890   -0.02799163919379   -1.11012767342728
N        -2.29757400215721   -2.66492903694825   -2.29644149439144
C        -2.55954969236687   -3.97144456539074   -2.47783202259735
C        -1.82499714209828   -4.63087559709665   -1.50239700024370
C        -1.70108915120647   -6.04953189645890   -1.21476359212779
C        -2.48834449339158   -6.99012224681066   -1.87970356063230
C        -2.34916599776349   -8.33438211523856   -1.59905297467716
C        -1.42196234354108   -8.74712436266854   -0.64721489638839
C        -1.28488635153411  -10.21250737763042   -0.37797666921612
F        -2.46569819826558  -10.80400195281364   -0.09089871849551
F        -0.46643015153649  -10.50547047110039    0.64586074829798
F        -0.79829159048049  -10.89252007438605   -1.44425922463436
C        -0.63316039432517   -7.82124158211498    0.02406196687803
C        -0.77658683970258   -6.47848311936894   -0.26261339087755
N        -1.16922728967558   -3.68522172903237   -0.79145501790199
N        -1.46335371407717   -2.53661934676107   -1.27193578008136
H        -4.57214165180154   -2.35780638849335   -3.80335151863908
H        -3.15579413161673   -2.62746048557540   -4.83523275879358
H        -3.89887305651202   -1.04612472354302   -4.79045202492627
H        -1.79838209955287   -1.07795113449274   -3.50076961855440
H        -5.12456116306831   -0.21905459151938   -3.13967314413170
H        -5.88733650995376    1.65502004105424   -1.73119391160534
H        -4.34158401264479    2.49449526942243    0.05953243598867
H        -2.20569693097677    1.35699874032557    0.39977137413491
H        -3.20559899450907   -4.34317428324678   -3.24154013081602
H        -3.21137961604109   -6.67859787948839   -2.61410721899362
H        -2.95254195980358   -9.06911770550233   -2.10893677467548
H         0.08223466467602   -8.15424693774819    0.75910945612113
H        -0.16508832449397   -5.74989426835739    0.24254772548454
Cl        0.29743854484141   -0.45224791202872   -2.61650125487141
