63
 energy: -92.385547824881 gnorm: 0.000602022450 xtb: 6.4.1 (afa7bdf)
Ru       -0.47855888406797   -1.41229021134621   -0.80361471280116
C         0.29503446079053   -3.15054422238954    2.04295972586356
C         0.37489809253689   -1.89693758509462    1.23297235290219
C         1.48012765907884   -1.67378588938728    0.36083973484797
C         1.59164406461857   -0.47864914240104   -0.35107659808438
C         0.66816397025989    0.59537182146660   -0.15215424373794
C         0.92299362341138    1.97029637784700   -0.72184591827755
C         1.90289198119739    2.69593094146670    0.21103568111858
C         1.45948485990098    1.94262965238980   -2.15279584754666
C        -0.39692509417209    0.38679366080306    0.73073971875076
C        -0.57802675787421   -0.86192219467374    1.38252683004442
H         0.66526710980455   -3.99864067548792    1.47182974778986
H        -0.72393461373491   -3.34509585171588    2.36732815323669
H         0.92112559243984   -3.04088994400436    2.92846080020693
H         2.25501078615717   -2.42704594203695    0.28190382839095
H         2.45306800244101   -0.31919040729984   -0.98937552294403
H        -0.02313799241928    2.52249043088889   -0.72328577039878
H         2.85275188483499    2.16772557689537    0.25194876878873
H         2.08413920566907    3.70079178542540   -0.15964136100530
H         1.50001993267669    2.76458677990491    1.21858662032493
H         2.49215742425794    1.60345750282018   -2.18487413517881
H         0.85847514857306    1.28415544852297   -2.77779230479234
H         1.42514943154233    2.94203009264542   -2.57808746796403
H        -1.06376832632273    1.20897247523629    0.96558545080406
H        -1.37722078086981   -0.97202198549237    2.10794991538394
C        -4.47316866025484   -0.25708380499222   -1.79260193608753
C        -5.03377690034273   -1.43149641888602   -2.27806436800172
C        -4.27198222392013   -2.58667229975593   -2.27221614806558
C        -2.97504914641662   -2.52891419052705   -1.77601258762248
C        -2.03922267416852   -3.62611272158694   -1.70756233189358
C        -1.97078044083313   -4.97897555820103   -1.99060747510574
N        -0.72612197335038   -5.33970592547456   -1.63767309171407
C        -0.13209171201993   -6.66453848257651   -1.66367351839123
C        -0.28823013208163   -7.32032447585878   -0.28774773602749
C        -1.72268128245086   -7.78748837306854   -0.08259515040802
C        -2.05187054631915   -8.87352414557805   -1.10117739727048
C        -1.68374277020372   -8.48395690809446   -2.50491931216820
C        -2.24417771053762   -9.17451024496340   -3.57579125127562
C        -1.91430462861371   -8.86288872598084   -4.88052790416377
C        -1.00855673104677   -7.84592527777634   -5.14025363382170
C        -0.44075043615359   -7.15578681346122   -4.08737153331773
C        -0.76798977730648   -7.46933201076858   -2.77137513190874
N        -0.04858753565414   -4.31127187313288   -1.16383177981275
N        -0.82159144334760   -3.28707902755038   -1.20265587154477
N        -2.43959771017907   -1.38374959463833   -1.29146972833755
C        -3.17424687102784   -0.27609843213165   -1.31548799138070
H        -5.03010874088083    0.66450420441951   -1.78738323330050
H        -6.04097769282957   -1.44217627786489   -2.66050649704481
H        -4.65548117648758   -3.51907278147223   -2.65059520395854
H        -2.67889222157554   -5.65828830436285   -2.41491691953703
H         0.93044960305650   -6.50776462702052   -1.87457478371365
H         0.00763008002668   -6.61021309151163    0.48450896764225
H         0.38419723191780   -8.17662376825226   -0.24036918836369
H        -1.84402543501840   -8.18355175715943    0.92526738223710
H        -2.41105913261116   -6.94786213818143   -0.19516378964200
H        -1.49796267316201   -9.78327572309256   -0.84992504605465
H        -3.11285797544422   -9.12561795908323   -1.06073929481355
H        -2.94984768502411   -9.96751100476473   -3.37646157772138
H        -2.36121859133589   -9.41072750759481   -5.69616514241410
H        -0.74562641765922   -7.59706121881039   -6.15684412381573
H         0.26809429751971   -6.36452990163094   -4.28433797912345
H        -2.70488167209758    0.62756401166705   -0.94959765856414
Cl       -0.20563927300034   -1.17202734540682   -3.17049947923838
