71
 energy: -99.375735306763 gnorm: 0.000161971033 xtb: 6.4.1 (afa7bdf)
Ir        0.06898688430212    0.21109266296073    1.73497053370874
C        -1.82589778960243    2.51914849985578    3.83803856866754
C        -0.59172175282769    1.85764993478653    3.33481917897197
C        -0.07727713702391    0.64776209554748    3.95016974021466
C        -0.77103533887972   -0.09685281845897    5.03992285050854
C         1.30065871581431    0.51950798407618    3.59996666325249
C         2.30461162567767   -0.30229017865770    4.33060583893440
C         1.57738741818657    1.50931903489019    2.59626685455818
C         2.92858284201747    1.84340117587584    2.05513250630554
C         0.40320756487216    2.37187345016321    2.47629721788912
C         0.44458451747533    3.68384642866118    1.74673373787014
C        -0.72384102073828    3.93491060761471    0.78942918220900
C        -0.51009063922178    5.25118071939171    0.04841999846385
C        -0.38693179425085    6.40876568539601    1.03588927014845
C         0.75691247861536    6.15697121834350    2.01456152048959
C         0.54940525353157    4.83967317313213    2.75635424112740
H        -2.62270495762286    1.80256381647244    4.01473791392739
H        -2.19176065725486    3.28706734515464    3.16761100321424
H        -1.58030703917583    2.98131982583553    4.79607097090777
H        -0.37663335434538   -1.10342375895642    5.14498741486513
H        -0.62277628968145    0.42905175341681    5.98385306149975
H        -1.83982554323873   -0.15675927347874    4.85442591323492
H         2.70435203566102    0.31088088662659    5.13991049868830
H         1.85282413054805   -1.18348431023057    4.77535191610055
H         3.13596203997467   -0.59910388936375    3.69964693216360
H         3.64924937773389    1.06394540158126    2.28383082232226
H         2.89222180107016    1.98192295941342    0.97633025105799
H         3.27815557098652    2.77316713822404    2.50358269806682
H         1.35419639649613    3.69121972500254    1.13832543225553
H        -1.66857274676674    3.98456340116898    1.32951139354862
H        -0.78451377530382    3.11390220370419    0.07477913546370
H        -1.34648899286712    5.42921458995355   -0.63046856573136
H         0.39874005434493    5.18929878271040   -0.55509837063995
H        -1.32306903692525    6.51415780205295    1.58907517525676
H        -0.21395279415828    7.34158435455959    0.49518534424876
H         0.81830502150259    6.97644164949021    2.73364250852235
H         1.70092829020310    6.12486240339692    1.46524726098776
H        -0.36599867896443    4.89861527094200    3.34482185115863
H         1.38184052325170    4.66306430807341    3.44057687089618
C         2.08794455127749   -6.28172086431237    3.47462150105213
C         2.78111689575090   -5.42384036210301    2.74971422234398
C         2.17723053855892   -4.43077607651483    1.80189619310097
C         2.57101082582457   -3.00400081179982    2.19501324361676
C         2.20339092040069   -1.93344430260631    1.15270430726142
N         0.79574130772713   -1.59222099606793    1.16523451706194
C        -0.02253190110438   -2.40011113287039    0.58623018882857
C        -1.40440072534238   -2.04907205510023    0.48629883187971
C        -2.34702595482854   -2.86509809108305   -0.13714229705277
C        -3.63872656767715   -2.41722012517941   -0.31794562011036
C        -3.95531608660873   -1.12161952850177    0.09611410009768
O        -5.12995601499007   -0.51107326306958   -0.03319611466064
C        -6.21885366317625   -1.20260886281290   -0.62680151180376
C        -2.93725421661092   -0.36645579482476    0.71686379357764
Br       -3.40113774338037    1.38932078097127    1.17524101979968
N        -1.71689992869905   -0.81072241630003    0.95345558660286
H         1.01174403877817   -6.32632495696959    3.43112169676401
H         2.56489639709931   -6.98297033652671    4.13781699899558
H         3.86135315559787   -5.40541673632842    2.81331025072296
H         2.54794860734794   -4.64529264662810    0.79527258202175
H         1.09318706042031   -4.54707174889852    1.81376691414231
H         3.65324626984395   -2.96760563965158    2.32655955498308
H         2.10315608732549   -2.76297816071193    3.14749809848988
H         2.47848609473255   -2.29125005761360    0.15565971097573
H         2.76662967578380   -1.02200968919151    1.35008874498149
H         0.32226020383289   -3.30644580203411    0.10147971960256
H        -2.05494391722685   -3.84265200641797   -0.48439132520009
H        -4.37516165803076   -3.04399887342961   -0.79315782550223
H        -6.47499340734215   -2.09455698371257   -0.05113513899367
H        -7.04940281938432   -0.50067114113527   -0.60379079487652
H        -5.99420474129779   -1.47198462176781   -1.66113224867513
Cl        0.38144651184868    0.74365624419857   -0.56992523520173
