74
 energy: -118.597770727243 gnorm: 0.000163474575 xtb: 6.4.1 (afa7bdf)
Ir        0.32232033583647   -0.72386249473708    1.43406597980572
C        -1.08392822213871    0.45976209099849    4.24261864596312
C         0.15747254386823    0.11397819243125    3.49631288120778
C         0.85638444736410   -1.12948620057981    3.56861138008020
C         2.06581931569991   -1.00820199586287    2.79049842553522
C         3.19632579909935   -1.98079807838951    2.78986937402198
C         2.13639313267165    0.33068891804594    2.28392209445653
C         0.93010334038315    1.01191322461529    2.66611322109231
C         0.67760851372082    2.44318394519808    2.44983806203188
C         0.42155452528385    3.29083668257694    3.52657616188529
C         0.24919560487079    4.64544932289015    3.32147076328574
C         0.32646228068425    5.19312903609263    2.04162857592241
C         0.17306279309250    6.63978411520492    1.82842227789733
C         1.00409388212819    7.31091368374279    0.93311870753650
C         0.86955943481489    8.67238396213709    0.73322723929840
C        -0.10200140959967    9.38424558258449    1.41805572467199
C        -0.93522525782321    8.72643326479718    2.30830654724119
C        -0.79667235589096    7.36630148902252    2.51629396406430
C         0.56731627266420    4.33843476622097    0.96646198549401
C         0.74224663944102    2.98397578833932    1.16526713620262
C         3.30926925167219    0.93136094634612    1.59798542168709
C         0.49809067251973   -2.28970097053140    4.42941113117505
H        -0.82990265674601    0.66275031739251    5.28360358277172
H        -1.79420620724797   -0.36367775609138    4.23230588138121
H        -1.55590034816048    1.34525307122593    3.82602613873347
H         3.84147545916276   -1.77015570571579    3.64360355487457
H         3.78777493694632   -1.88655425696858    1.88420895537324
H         2.83843866176214   -3.00262511889556    2.87631092554705
H         0.39391665479919    2.89396184431766    4.52900269519902
H         0.08078598331699    5.29459866041916    4.16739379148856
H         1.77533009700631    6.76661348872088    0.40755426334044
H         1.52571301957520    9.18157612756851    0.04210243615829
H        -0.20820541006670   10.44744096367875    1.25939967676152
H        -1.69634586597407    9.27709715341302    2.84196712045410
H        -1.45999615298123    6.86063002041566    3.20262422250497
H         0.60575577662110    4.73954507598054   -0.03500601887149
H         0.91960029707899    2.33261799804821    0.32187791219562
H         3.40134244860014    0.55383663277873    0.58010879840942
H         3.21005180923389    2.01265530998083    1.55077737658511
H         4.21880789144926    0.67165354203634    2.13683547578199
H        -0.56425843745642   -2.30059882913463    4.65368118529022
H         0.77565354235608   -3.22896982675682    3.95735800783007
H         1.04357345223468   -2.21162652272009    5.37046399898544
C         4.16088181646865   -7.19820876269450    2.52135027167480
S         3.14408326501036   -7.43008858870732    1.04062582893829
O         2.28755995937499   -8.57604411223043    1.23353836482816
O         4.00066488984301   -7.42915345806495   -0.12128346868492
C         2.10979347859096   -5.95462984769957    0.98285946786002
C         2.61024519855542   -4.80176590342285    0.40372242339227
C         1.82105944444072   -3.66781962211360    0.34951059765411
C         0.52305237942009   -3.70615120512126    0.86112307907551
N        -0.27756246516457   -2.55714735376907    0.77173976452058
C        -1.44866826707159   -2.62528453951305    0.22167872103419
C        -2.20345714878716   -1.41097758651363    0.14078697332258
C        -3.45163755308734   -1.29346157046204   -0.47761760374164
C        -4.06755601173066   -0.06038541628587   -0.52799694964926
C        -3.40476459040347    1.02983778815531    0.03615469987038
Br       -4.18203784053227    2.76376838567906    0.00310567627090
C        -2.16569698337475    0.85136623639659    0.63803311970045
N        -1.58575439702023   -0.33888915198573    0.69823675481351
C         0.02745453883579   -4.87389363526163    1.44421913129319
C         0.83178498209291   -5.99836858304129    1.50907514025364
H         3.49857905854150   -7.10173813091160    3.37147217061537
H         4.76811866323931   -6.31449528244318    2.37710275839998
H         4.78739258343203   -8.07560876965793    2.62687147563134
H         3.60297933279777   -4.81448514553179   -0.01595249144432
H         2.17572817386350   -2.76149261539685   -0.11630875707863
H        -1.82793556960971   -3.54822380090844   -0.20202288262401
H        -3.91688255669083   -2.16239061510068   -0.91483391355998
H        -5.03197454550387    0.06544260856887   -0.99431631356403
H        -1.63641049081894    1.69012500657772    1.06886205241473
H        -0.97048673916591   -4.89027882191959    1.85384803740904
H         0.47751522170366   -6.92036248449756    1.94173780571211
Cl        1.03619468104756   -0.31097648310134   -0.79615861555774
