74
 energy: -96.234488471520 gnorm: 0.000152450363 xtb: 6.4.1 (afa7bdf)
Ir       -0.32548630245194   -0.29725531447660    0.94525344168042
C        -2.09639213246265    1.44023503021727    3.33113332951750
C        -0.96829890243875    0.54872093439635    2.94203487528148
C        -1.04866974807105   -0.89919643612246    2.97375418461743
C        -2.25945040717492   -1.67332222054273    3.37284903823822
C         0.27590703585670   -1.41631250163149    2.86456279168262
C         0.67927224207268   -2.82298290047984    3.13758277393462
C         1.15050131999119   -0.31751639468181    2.58925275083494
C         2.63794140026737   -0.35795887184278    2.51224220217031
C         0.37876334069177    0.90939005447492    2.70352903373142
C         0.99283515226595    2.26868900750989    2.76247919499254
H        -2.20275498429664    1.41211042365626    4.41672546128974
H        -3.03339351140027    1.10268345782217    2.89636892530026
H        -1.91655619935150    2.46746065572092    3.03314030259308
H        -3.16061975993727   -1.23575847744392    2.95073242223566
H        -2.18801194862758   -2.70803881209214    3.04930112871208
H        -2.35672490737671   -1.66260212579003    4.45921160773935
H        -0.04609831374612   -3.53627248255551    2.75279620018281
H         1.66213248606578   -3.04458351957256    2.73070561780436
H         0.73207990654573   -2.95898345933530    4.21910768822774
H         3.00201436972837    0.40173924101502    1.82494532510689
H         2.99405391376447   -1.32745742312231    2.17638729125462
H         3.05981736481378   -0.15635329156423    3.49762160508824
H         0.24319023266448    3.03687764137722    2.92709498325181
H         1.53231066202517    2.49008597531051    1.84258628678843
H         1.70811640350669    2.30349380449442    3.58406968366133
C         0.72760249147878   -1.65906658519457   -3.27434965942238
C         1.83373384914956   -2.51532662506403   -2.66463175544739
C         1.94244434305995   -2.40980529837179   -1.13917717557921
C         3.14787201528069   -3.21183587569895   -0.62428229735255
C         4.49043190563978   -2.60461128187511   -1.01876331534892
C         0.66390693828762   -2.91318174548184   -0.43929281870475
N        -0.37464515029556   -1.92150244741518   -0.28875778250836
C        -1.52700758774560   -2.15168378738043   -0.80317316288713
C        -2.59244330239353   -1.19739761030695   -0.64053374358822
C        -3.89441907192902   -1.52253779922647   -0.97290996385415
C        -4.89396068307424   -0.59585466665986   -0.67980455030455
C        -4.53646802361835    0.63289763359756   -0.19569134626526
C        -3.16663178381513    0.97365936226368   -0.01150007973530
N        -2.81717227371692    2.23870350559673    0.26786684520196
C        -3.82789047130814    3.24421669767306    0.57648722891936
C        -3.17046125776760    4.53400085446515    1.05447087355969
C        -2.31559424759982    5.15405290637199   -0.05416692118144
C        -1.68431304509067    4.04749079308218   -0.90657199608873
C        -1.51459908880409    2.76541264728305   -0.09525014806663
N        -2.22451692541939    0.00197767384997   -0.11725560460339
H         0.75281090644717   -0.65754328055233   -2.85341339042617
H         0.86994280203078   -1.58140961837592   -4.35025909593122
H        -0.25644512268722   -2.08402183273840   -3.09913781281134
H         2.78302413219378   -2.18892297359917   -3.08984304576864
H         1.69075158371131   -3.56168284358213   -2.94871675709918
H         2.08843278368567   -1.36139873730624   -0.87228432555183
H         3.10838789562934   -3.25334713880534    0.46648927703507
H         3.08984783390472   -4.23820063152573   -0.99415123762522
H         4.53233485165233   -1.55694602280173   -0.73012053053451
H         4.66136482801133   -2.67209563466872   -2.08945653471334
H         5.29949196460406   -3.13302605377648   -0.51913202970942
H         0.27254342497148   -3.78009946077462   -0.98268397977856
H         0.93701634154715   -3.23729359134288    0.56699439457611
H        -1.73219945982480   -3.06648631326372   -1.35237108914227
H        -4.12370117525018   -2.48002209725650   -1.40747798911490
H        -5.93109499353418   -0.83549465855520   -0.85263228214991
H        -5.29777744203314    1.36489260345852    0.00479300602011
H        -4.43648632726460    3.46626720383938   -0.30812427774643
H        -4.47992062789613    2.86198748600003    1.36595845327872
H        -2.55541677132431    4.32458409565091    1.92954457400408
H        -3.94920306839363    5.23024660071307    1.36586098877782
H        -2.92861145479008    5.79752351768690   -0.68626559347769
H        -1.54230743261619    5.77971930564109    0.39246294930449
H        -2.31102533568484    3.83155081402095   -1.77359835722765
H        -0.70888117134282    4.35786648064842   -1.27915571759739
H        -0.91108270192993    2.96734728508000    0.79127152342531
H        -0.99949833114533    2.02398936785570   -0.70183962923557
Cl        1.09119772408466    0.85329178208341   -0.59414526342397
