78
 energy: -125.834827092555 gnorm: 0.000395561595 xtb: 6.4.1 (afa7bdf)
Ir       -0.27792080663139   -0.39613196891062    1.46801071469750
C        -1.55013877629047    1.39770123864331    4.05735485985030
C        -0.37380089926615    0.75151481051957    3.41232830856251
C         0.08881596084055   -0.57941066221074    3.66353055778553
C         1.35636149338924   -0.74719436827635    2.99151851368665
C         2.29448419546200   -1.88134278266867    3.22196812052387
C         1.63361386394543    0.44546036786789    2.26830291577400
C         0.53890114282347    1.37485385520194    2.50077953745012
C         0.57556651986243    2.80856379691230    2.16086833722023
C         0.65908045239013    3.74590424329801    3.18921184358913
C         0.76003053916643    5.09217334521373    2.89952023620606
C         0.77781938780162    5.54014644069272    1.57958918307230
C         0.91223617093212    6.97247873152016    1.27413577630603
C         1.74753752732790    7.39851235813887    0.24334391188840
C         1.88529810828978    8.74505985348917   -0.03924994328204
C         1.18499494100536    9.68683034477267    0.69729296209771
C         0.34905619691201    9.27370217195484    1.72201855510375
C         0.21624006301250    7.92802539185011    2.01162863803780
C         0.67704114900022    4.59851643909073    0.55676578498849
C         0.57713470313536    3.25099408129174    0.84120502502844
C         2.89570667946680    0.79409032646997    1.56344324485446
C        -0.49359745927251   -1.52329606053694    4.65736649022285
H        -1.34247332573802    1.52695257202062    5.11981359523163
H        -2.44274476236476    0.78179644889371    3.97129700963498
H        -1.73748408120002    2.37557965494568    3.62277602277650
H         2.86264620510239   -1.68136831852644    4.13130385034912
H         2.99773956266164   -1.99323448234168    2.40237434841430
H         1.76453044463584   -2.82052907024846    3.35720277433950
H         0.67540195529347    3.41452568156588    4.21630122458887
H         0.85277774780622    5.80519369014569    3.70472542555662
H         2.30978315906765    6.67152978137989   -0.32457071281842
H         2.54302805624077    9.06271862801141   -0.83544191228946
H         1.29148835256665   10.73839408605506    0.47421297651246
H        -0.20058375505208   10.00483292705525    2.29706880984355
H        -0.44698142365919    7.61423349342844    2.80435932653878
H         0.66540734840851    4.92848086906464   -0.47117844509330
H         0.48921605980316    2.53372724137706    0.03936729425410
H         3.46786386288464   -0.09391372817815    1.31186521648958
H         2.68963680798833    1.35435358113437    0.65494789382930
H         3.49966842976434    1.42566070430713    2.21600607133969
H        -1.56850684381547   -1.39171654959142    4.74262362323213
H        -0.27789042265473   -2.55463435588909    4.39179385136921
H        -0.04925183992107   -1.32939249981070    5.63450333573862
C        -4.39146466421397    3.37083746910488    0.60001470372819
O        -4.90099343535381    2.14041460470802    0.10394450546382
C        -4.17712170098537    1.03635317222997    0.19055009644022
C        -2.90761323907647    0.93544657966992    0.76861221125711
N        -2.22920933661001   -0.20643246078883    0.82126428161502
C        -2.76357860710576   -1.33044005570207    0.28822640084796
C        -1.90038088869815   -2.46977749146462    0.33034600618071
N        -0.71962512182425   -2.28867123373737    0.82855167521955
C         0.20525198231952   -3.34041706807640    0.87461852550638
C        -0.13163316133665   -4.56114126094987    1.46196111577982
C         0.80821181139302   -5.57566415732015    1.51239163673261
C         2.06210040203578   -5.37193301655516    0.96642400983780
S         3.27422645881766   -6.70338976735385    1.00479198236164
C         2.95277901918822   -7.62548178993162   -0.51873280620020
O         2.98702990900359   -7.55127200018848    2.13800116645299
O         4.59313312333487   -6.11977091120948    0.93629072074846
C         2.40276278451420   -4.16887462720527    0.37474753984992
C         1.47794228722253   -3.14242180010844    0.33662278556210
C        -4.03511200442908   -1.32588088551299   -0.29470455937914
C        -4.74171792638007   -0.14807196519018   -0.33969921721260
Br       -6.47310942194804   -0.05519615297325   -1.11393387005409
H        -5.15500021065541    4.10996545284202    0.36780957720517
H        -4.24465417819995    3.32165895209729    1.68037380922535
H        -3.45766661278172    3.63805602733142    0.10203316396869
H        -2.42087302681710    1.80320029642325    1.18735130478444
H        -2.20777200847378   -3.42140469625549   -0.08768051060996
H        -1.11004104433018   -4.69941566293976    1.89556130579372
H         0.59048777794187   -6.52166856329802    1.98146638838119
H         3.11784613775867   -6.95955241612660   -1.35549462294648
H         1.93178506207258   -7.98239475233120   -0.48503699690268
H         3.64544414757222   -8.45767838512051   -0.55142324866473
H         3.39494461620872   -4.05009909298222   -0.02999709658868
H         1.71179979011346   -2.19584641270538   -0.12622056110594
H        -4.44417064057367   -2.23261931656488   -0.70929091151403
Cl        0.24964222916478    0.05000307902954   -0.81532966526277
