72
 energy: -100.579227443434 gnorm: 0.000396024243 xtb: 6.4.1 (afa7bdf)
Ir       -0.24898648524043   -0.72618384444649    1.70218713325280
C        -2.10723819205186    1.37407915550014    3.94439732822123
C        -0.90853808616776    0.59409428914276    3.53704709527468
C        -0.76858197792167   -0.81076544145497    3.88384594945480
C        -1.80931062900758   -1.60947692505257    4.58986336478677
C         0.60217637845582   -1.17170866096368    3.74551230703567
C         1.22992512190265   -2.37759251479807    4.35375556978778
C         1.27395722549924   -0.06354799520204    3.11541118506225
C         2.74782564514063    0.06460470572566    2.92685050575085
C         0.33648032360003    1.05726258948513    3.05562831614172
C         0.78742859561234    2.46653423656327    2.79457283643731
C        -0.03011372715074    3.25151877183359    1.76530895760116
C         0.59986291297155    4.62422573894776    1.54791870596100
C         0.66250302714162    5.40005462395136    2.86117038350469
C         1.44817766375571    4.61518086960787    3.90808396332933
C         0.82763991378844    3.23829446092124    4.12571887529930
H        -3.02706321508221    0.84110028206462    3.71887306957847
H        -2.14609304073722    2.35098093988686    3.47849183592628
H        -2.06191782705736    1.50499861588740    5.02721243738408
H        -1.59825710976859   -2.67297076585632    4.52994767368262
H        -1.82475602478433   -1.32327313817876    5.64217142049420
H        -2.79794747335024   -1.42057799968720    4.18018653035156
H         1.27545840689391   -2.21713459608642    5.43232750412671
H         0.64103166884729   -3.27546530220682    4.18318086415257
H         2.24557334456913   -2.52980963338984    4.00169272918688
H         3.23130408503115   -0.90683252065283    2.91489368072015
H         2.97928551691892    0.57694126755800    1.99620581338775
H         3.16552223541174    0.64764547544784    3.74795947407317
H         1.81009300009995    2.41870520166049    2.40924763923331
H        -1.05736331761957    3.38809422988405    2.10125470745006
H        -0.05057333429316    2.70082138268694    0.82501137497663
H         0.01475826871652    5.18221226346609    0.81454416773617
H         1.60897894369681    4.50660983369182    1.14593724434961
H        -0.35162929112460    5.57919035439762    3.22543078861475
H         1.13202855605806    6.37200807920803    2.69668160153703
H         1.45892498068570    5.16301983238344    4.85239130780836
H         2.48280510706270    4.50479275981189    3.57537554492458
H        -0.18399143557870    3.35763009632489    4.51258558135342
H         1.40989316285333    2.68049773217765    4.86143733134163
C         1.83244103231615   -4.01610886655300   -1.91880158672582
C         2.27303287694918   -2.67252714247319   -1.33971500913702
C         2.47329949725673   -2.57754401518937    0.18337090796144
C         3.85906156383392   -3.03956711156048    0.66456215499001
C         4.20760031156581   -4.51089620082937    0.46381273293776
C         1.35705530332460   -3.27484210062060    0.98964332003558
N         0.11225569172633   -2.55648139658167    0.89372855998807
C        -0.86105582934223   -3.11394128721356    0.25864863119736
C        -2.04408283515826   -2.35506246972759   -0.00927800686293
N        -2.07589313622701   -1.11076129270016    0.51937142686503
C        -3.06045879694694   -0.30162206379354    0.14304525954346
Br       -3.02553653991706    1.47197642119336    0.74368539617711
C        -4.10509486682062   -0.69073138786975   -0.68735820559783
C        -4.12401367952198   -1.98310436233979   -1.18708126746318
C        -3.06678234773851   -2.80746836080755   -0.85158949057869
F        -2.99351485151018   -4.04924464422094   -1.34135729273673
H         2.41584219177113   -4.84315447170474   -1.52955913081206
H         0.78064878941752   -4.20934190944586   -1.72754124194867
H         1.96297444886878   -3.99491862026558   -2.99883353860724
H         3.21690471735391   -2.38398959866871   -1.80595358897560
H         1.53524485641076   -1.92103162582616   -1.62949493965154
H         2.41263453686471   -1.51029857832578    0.42464149912202
H         3.94379666659153   -2.81211689337845    1.72975114967007
H         4.60680052442532   -2.43421676806851    0.14903649871251
H         3.45597293062368   -5.16534736036972    0.89675022979157
H         5.15665278031108   -4.72312970032659    0.95196134673696
H         4.32352255097262   -4.74778224231039   -0.58934179832654
H         1.22586417014899   -4.29966096078189    0.63589308836894
H         1.66554993551474   -3.29723758867609    2.03466639487523
H        -0.79065962320141   -4.12341213392496   -0.13344247223652
H        -4.88467323982641    0.01206914967588   -0.93347200682250
H        -4.91501517174725   -2.33465222169911   -1.82999485609418
Cl        0.42893562391015    0.29592835520428   -0.33252096370897
