80
 energy: -123.550238868735 gnorm: 0.000240233304 xtb: 6.4.1 (afa7bdf)
Ir       -1.04672151417020   -0.43731556560059    0.72287345947273
C        -2.39708102617064    1.38525133839573    3.31413791428134
C        -1.20264460076020    0.74761172969394    2.69410127104438
C        -0.78138595993128   -0.60170053308648    2.94191379719059
C        -1.42095234574079   -1.52912588559292    3.91960227221740
C         0.51453312953888   -0.77718727495276    2.33884609222663
C         1.47887441481719   -1.87504384349574    2.63073712587765
C         0.82967469304644    0.40491156010125    1.61374229499860
C         2.15709021390708    0.70106703236030    1.00647618350048
C        -0.24247973333610    1.36221439003912    1.83804551603911
C        -0.14136243006647    2.79549058832367    1.52103686867077
C        -0.22797639526422    3.72686334431667    2.55519112926035
C        -0.07175139256515    5.06874688124864    2.26599413925325
F        -0.15178694702561    5.96152339361318    3.27509885987745
C         0.16455592153289    5.53424932433284    0.98479422454565
C         0.24098985024499    4.58572856233505   -0.02024587336306
F         0.46496956299460    5.00314074057265   -1.28334791454197
C         0.09465898631854    3.23290502436927    0.21848102150815
H        -2.59121748598312    2.36400317365542    2.88617941855615
H        -2.22122928572209    1.49738269777844    4.38457966952820
H        -3.28327570133500    0.76599052232110    3.19172688845495
H        -1.22311585628111   -2.56744490424106    3.66877677161947
H        -1.01544009362795   -1.33730178568070    4.91382542592202
H        -2.49552050475270   -1.37538584735310    3.95789083149589
H         2.15239243365366   -1.53135077735483    3.41758581943788
H         0.97713110580772   -2.76761310441605    2.99308764667044
H         2.08794900908958   -2.11518159865249    1.76304368680264
H         2.50749602465908   -0.13140820102831    0.40107337633127
H         2.11857758142027    1.59111005646442    0.38648785844178
H         2.88274595793890    0.86405839117034    1.80430378829887
H        -0.38498086594977    3.41914629956598    3.57573574060397
H         0.28678903275428    6.58458176559380    0.77976274213453
H         0.13762640168273    2.53583850445938   -0.60475924871168
C        -7.32164137527861    6.07557990247193   -0.26665631384515
C        -6.09673846620933    5.19380723530415   -0.08244524045827
O        -6.50496201760463    3.84384950472728   -0.28084507892171
C        -5.61848207540626    2.84590320661415   -0.18901774247842
C        -4.24753864854127    3.01037888679887    0.11945435654374
C        -3.41659652514113    1.92969031899965    0.21588216411313
C        -3.88309823718295    0.62058677321119   -0.00441995105509
N        -3.05228557746592   -0.44225973238290    0.09274933482333
C        -3.49112651764726   -1.65040270357074   -0.28863548137740
C        -2.48366710092361   -2.66714847131080   -0.30402594595067
N        -1.29428966214936   -2.34645593264622    0.07361909434597
C        -0.24175695851925   -3.32821654644298   -0.01243408494533
C         0.79093065967467   -2.95721316758695   -1.08551003098294
C         0.23405732933782   -3.12041433922541   -2.50361963984120
C         1.31315762765638   -2.85097695169057   -3.51650472840271
C         2.01846919253869   -3.89327748472212   -4.10343507881480
C         3.02721325261810   -3.63634031486943   -5.01642808847989
C         3.34629514579312   -2.33076220421938   -5.34939953147873
C         2.65217265839205   -1.28431299815653   -4.76409816263035
C         1.64323165923595   -1.54389655825622   -3.85411596988793
C        -4.82548138196841   -1.88716652279269   -0.67773731455098
C        -5.71116203268835   -0.85033031978930   -0.68472153694213
C        -5.25581384715204    0.45227606321583   -0.37203879589935
C        -6.09459613209580    1.56696597937436   -0.43367785626364
H        -7.04516086920334    7.11685309870204   -0.13068273114691
H        -7.72967985699164    5.94377210212962   -1.26478142582288
H        -8.08595409055359    5.81226180843181    0.45916119430353
H        -5.32497284194826    5.45891734383151   -0.81572158902102
H        -5.69087600332397    5.31464815979676    0.92948344167329
H        -3.84179262465060    3.99707133258508    0.27342314199044
H        -2.36833503484398    2.08043500093258    0.41315955278805
H        -2.72153736285905   -3.66443738658429   -0.65852128089938
H        -0.66746244903884   -4.30937076419980   -0.24399400630764
H         0.25781498925501   -3.38084970113521    0.95483376263819
H         1.66013134661663   -3.60425786557742   -0.96335774198860
H         1.10588148586596   -1.92187706442335   -0.94802142285037
H        -0.58413658006107   -2.41356372772982   -2.65063005674170
H        -0.14543498631212   -4.13503148156071   -2.63679923569913
H         1.77530527744880   -4.91619761462008   -3.85227400717297
H         3.56530476880801   -4.45614560095379   -5.47077917800941
H         4.13127533497187   -2.12943232202852   -6.06422428230358
H         2.89732702060434   -0.26360303784523   -5.02119905054590
H         1.10105977421441   -0.72651637102455   -3.40252878904862
H        -5.11921717187137   -2.88618960251215   -0.95438147392428
H        -6.74638600541432   -0.99726228188828   -0.94972299402862
H        -7.13241652444097    1.44215961061162   -0.69748660847650
Cl       -0.63184374654215    0.26350474286508   -1.50333339394740
