64
 energy: -120.193179028164 gnorm: 0.000340440914 xtb: 6.4.1 (afa7bdf)
Ir       -0.24138322250039   -1.01415231625152    1.42179128615198
C        -1.76878558163436    0.15966477201709    4.15796533214732
C        -0.49832425219864   -0.03363939830503    3.40749734711339
C         0.40564028655371   -1.12820070065602    3.56978878153159
C         0.26251172733796   -2.24522628950861    4.54161518625317
C         1.56000809408404   -0.88014728929792    2.74241259795547
C         2.84328559720785   -1.63679233023398    2.79635493541440
C         1.39569694450610    0.40533396610819    2.12042744271138
C         2.43895811029276    1.12688189500233    1.34964226083775
C         0.10233917167570    0.90470899762556    2.48270456102524
C        -0.39627083986466    2.24732119318473    2.15169943008206
C        -0.82464872754764    3.10904575687099    3.15933909189237
C        -1.25840507315333    4.37662758070018    2.81759307336361
F        -1.66351066960277    5.20448733911169    3.79940962166251
C        -1.29277696496167    4.82817230606437    1.51000276099114
C        -0.86238937827251    3.94888860618734    0.53177721406511
F        -0.88511022133605    4.34771848561437   -0.75439787097322
C        -0.41290000751772    2.67498839480729    0.82347911493433
H        -2.40603581771499    0.89471078527663    3.67377514263019
H        -1.53980409144466    0.50985789186995    5.16510364634386
H        -2.31315854526143   -0.77654677876469    4.25502980540587
H         0.73547160767431   -3.15105890360785    4.17149178195726
H         0.75612925774629   -1.96435528013464    5.47244396972143
H        -0.78126233254389   -2.44776600905665    4.76145954670743
H         3.45496788491059   -1.23099305964010    3.60319468309750
H         2.67406628871482   -2.69027249249374    2.99748091002327
H         3.39450274280874   -1.53475842764099    1.86680561027048
H         2.51235442125433    0.73602588514039    0.33454458685870
H         2.20401028803865    2.18629582311583    1.28789187152439
H         3.40644830276189    0.99498465036715    1.82936534093213
H        -0.79683506926669    2.82108679288707    4.19688381289044
H        -1.63688219986205    5.81884205706200    1.26447283115452
H        -0.09410857774447    2.02302153535559    0.02461565351938
O         1.26908103288894   -8.35187083374561    2.86497975210028
C         0.50078387190138   -7.43379598795047    2.69668867847788
O        -0.76260371531273   -7.45704128302532    3.10502033495732
C         0.87109747933642   -6.16381903272931    2.00998153405086
C         2.17504775431188   -6.00890392145125    1.54209759190448
C         2.54437421271812   -4.84179832761826    0.89431882336374
C         1.62581216703563   -3.82248688602810    0.71722834290724
C         0.31731199871665   -3.97899178296635    1.17788230825439
N        -0.61029248762968   -2.94646845893752    0.96652786441396
C        -1.77032457973595   -3.22535119162921    0.45348767106383
C        -2.67276957588925   -2.13270367171641    0.25114466722131
C        -3.92515290223948   -2.23506089253799   -0.36202321399519
C        -4.68717196573249   -1.09661505998003   -0.52729764969647
C        -4.16254943186189    0.12047933195768   -0.08168594437538
C        -4.94782293222160    1.39244280905330   -0.26799178311682
F        -6.23056862284200    1.24909073617523    0.09574374304364
F        -4.45281997669028    2.41123241082150    0.44865032941157
F        -4.95761521195275    1.79068813382211   -1.55063180913949
C        -2.91238644165841    0.15532556434921    0.51510612502983
N        -2.19070887243594   -0.94306343960234    0.69206014542176
C        -0.06409252204613   -5.15280075620000    1.82449661067119
H        -0.98729243579772   -8.29440817212057    3.54919130586339
H         2.87794548471436   -6.81270130626494    1.69566751644365
H         3.55069901779184   -4.72627633411786    0.52461356901056
H         1.88925067691674   -2.91780551636354    0.19072318778217
H        -2.03092709031278   -4.23263743899204    0.15155894322881
H        -4.27996609722826   -3.19410585343170   -0.70424493588326
H        -5.66251561272342   -1.13485325715473   -0.98781895530452
H        -2.48807670458453    1.08993184943356    0.85552405429584
H        -1.06626958707421   -5.27099185596264    2.20500607543756
Cl        0.38489091650344   -0.68256101382101   -0.84252924302146
