71
 energy: -116.338482045460 gnorm: 0.000207011215 xtb: 6.4.1 (afa7bdf)
Ir        0.14234558866664   -0.40265808485892    1.41794011704362
C        -1.28111820963781    0.91464038699083    4.15443487388926
C        -0.03779468270108    0.47958665476099    3.45763140209604
C         0.57777311812727   -0.80451636543447    3.57631756579010
C         1.82208792402290   -0.77411278014598    2.84853999647963
C         2.88830858643972   -1.81634784708848    2.90212799221127
C         1.99332522896750    0.54161075153098    2.31685178860765
C         0.81898242838263    1.30830217693320    2.64083229678119
C         0.66472458947805    2.74763241444271    2.38972594887747
C         0.39768918934012    3.62796266609476    3.43732062569657
C         0.29622110802673    4.98441308503096    3.19981611992408
C         0.45841199178006    5.50217974646712    1.91546413942995
C         0.37033949684110    6.94962270604061    1.67159944666769
C         1.27506921360140    7.57778222003513    0.81775058032184
C         1.20499508566316    8.94119890053643    0.59842095798063
C         0.22531902231820    9.69777473248529    1.22092432478340
C        -0.68369427013988    9.08213543366965    2.06609937319565
C        -0.60994074577090    7.72012201734915    2.29377281702201
C         0.71994981973132    4.61696544535586    0.87029302425020
C         0.82293634648082    3.26028527335806    1.10161353323435
C         3.22258062589447    1.05399841271012    1.65661221466072
C         0.11009872985166   -1.91949646915289    4.44481422128433
H        -1.05137671878160    1.12274075937248    5.19999736194152
H        -2.03851262015563    0.13460761747196    4.13352509511669
H        -1.68536062656712    1.81721956703325    3.70457667137094
H         3.54084304468256   -1.61274172441832    3.75211204713254
H         3.49257419788333   -1.80047506793243    1.99973436875290
H         2.46850573844108   -2.81016731384034    3.02949649112765
H         0.30393798437138    3.25313035297643    4.44424457842507
H         0.11528213078425    5.65696738775308    4.02469321677829
H         2.05233244917107    6.99870744546652    0.34075020194270
H         1.91866519040260    9.41706446745386   -0.05854228551091
H         0.17105255492225   10.76269533581703    1.04811487165627
H        -1.45223254198762    9.66757500989319    2.54978178612383
H        -1.33046006434159    7.24725334956220    2.94498999965074
H         0.82876075290342    4.99603005787942   -0.13455073675891
H         1.01057958986297    2.58535281150212    0.27941261929953
H         3.30096126170048    0.68195026314221    0.63513559789474
H         3.20923207247026    2.14033546341918    1.62025748014803
H         4.10097002688445    0.71791952997012    2.20465819235405
H        -0.96655148775981   -1.88670398887745    4.58444446378477
H         0.38942305502836   -2.88527800316846    4.03084733583550
H         0.58150228200754   -1.82537901025963    5.42383647336332
F         3.39505912021180   -7.14367677508416    0.45090742042672
C         2.44143561268277   -6.98304407237528    1.38143912464210
F         3.07879388292278   -6.99892719405765    2.57383853499522
F         1.68703128963088   -8.09463482966328    1.35291322204375
C         1.63869576097288   -5.72684582577991    1.19369347450871
C         0.34157010055399   -5.66408006418840    1.69067735877078
C        -0.39363020611554   -4.50296951212362    1.54072291077055
C         0.17659998380613   -3.39785134364467    0.90950158780245
N        -0.54913969892776   -2.20672494930465    0.75953197521730
C        -1.69041378058662   -2.20776700954653    0.14967469380038
C        -2.35688968689890   -0.94336648978333    0.02217966226759
C        -3.56114209986382   -0.74980823688724   -0.65527162920438
C        -4.08686566061802    0.52689578420600   -0.73428396255554
C        -3.38938645272940    1.57554745509740   -0.14431214276861
C        -2.19624687994981    1.31301074669127    0.50790184649706
N        -1.69215251212634    0.08670134982576    0.60217458633061
C         1.48235321848745   -3.46251859418886    0.42585645876004
C         2.21059411853646   -4.62807555708304    0.56068321930326
H        -0.08956100561662   -6.52201481090335    2.18258464655514
H        -1.39884630612438   -4.44524961239632    1.92769784021370
H        -2.10698863232109   -3.10921649887979   -0.28522608996360
H        -4.05764118457086   -1.59148404341519   -1.11058581787896
H        -5.01761991419662    0.70618029542879   -1.24903671497093
H        -3.76162607930991    2.58600412924420   -0.18660492922077
H        -1.62563996415813    2.11046514463612    0.96287384250968
H         1.90147353024284   -2.60344379429900   -0.07404901363846
H         3.21597887213031   -4.68977552705969    0.17494170073785
Cl        0.97482611680529   -0.09676495128237   -0.78933699618785
