78
 energy: -116.611044526267 gnorm: 0.000700782288 xtb: 6.4.1 (afa7bdf)
Ir       -0.51738085986499   -1.18302441354942    1.85197877452473
C        -1.79941125363468    0.82155666586731    4.35559043954064
C        -0.63715983547525    0.19806331617634    3.65988735695666
C        -0.09427178237426   -1.07928480194751    4.05424870577137
C        -0.60361521277097   -1.90053847602823    5.18991154301727
C         1.17512078058302   -1.24594642468760    3.39646736017588
C         2.22204879799124   -2.25013504464075    3.73625138857560
C         1.34824100617702   -0.15284571921286    2.50803997833477
C         2.58371617017212    0.13003411661701    1.72445213738800
C         0.21749859102176    0.75551724972787    2.66535019830021
C         0.21036400383058    2.13859203650414    2.07364299094664
C        -1.07624849464725    2.52619782700545    1.33724451812689
C        -0.90409002303911    3.89920832271604    0.69304002263750
C        -0.57221229857955    4.94856423250668    1.75149850536122
C         0.68902617001381    4.55823952798910    2.51784951302184
C         0.52904570867064    3.18162639990760    3.15724409628369
H        -2.62341426964102    0.11881218711492    4.46103054022160
H        -2.15087674649168    1.71267797477354    3.84838499627394
H        -1.48139598148016    1.10524506398321    5.35982302482648
H        -0.31393593975434   -2.94194939164153    5.08620815971394
H        -0.18196024311120   -1.52103286163280    6.12151346680619
H        -1.68586266073178   -1.84550596460943    5.26151004970791
H         1.84319849928130   -2.98391164685986    4.43941726951644
H         2.59041366484054   -2.76459580593990    2.85133741207791
H         3.06262642197043   -1.73341826784759    4.19989741545968
H         3.21471248118607   -0.75203660145145    1.67027431850422
H         2.33988602509028    0.44275011358507    0.71132139141146
H         3.14332002220122    0.93323328637952    2.20431876538002
H         1.01520680356470    2.17533521267713    1.33338475961006
H        -1.91963485991855    2.57455315037221    2.02578591769782
H        -1.29202882256834    1.77979114496789    0.57102755623626
H        -1.82029464264805    4.17723576051857    0.16808922397679
H        -0.09986310116596    3.85887730444273   -0.04500330179043
H        -1.40827092118198    5.03971724904421    2.44898419415092
H        -0.42966928722464    5.92153385690983    1.27728895470638
H         0.89807499850782    5.29972038868670    3.29159888230054
H         1.53870497716999    4.54630431205131    1.83122402599825
H        -0.27625643861334    3.21532334352056    3.89139829258401
H         1.44777911998130    2.90499005991306    3.67775837501452
C        -8.33630675135811   -0.75271268905332   -1.15411231367461
O        -7.05843369601776   -0.71113702900180   -0.51971213569618
C        -6.23600873819799   -1.72549926531308   -0.75326026159105
O        -6.49534462429009   -2.67263541041532   -1.45770189338885
C        -4.93287615956256   -1.56928135498107   -0.03587165924592
C        -4.65001053523329   -0.46781161680881    0.77860304734419
C        -3.42129186975571   -0.39546453249969    1.40332007395004
N        -2.48440728944141   -1.33575001756504    1.27554091407694
C        -2.74818171068536   -2.40873556975667    0.48375834746495
C        -1.66933178462132   -3.34451836527436    0.40526630222875
N        -0.61170629734431   -3.08195767048301    1.10671932580196
C         0.49889800327702   -3.93284272720572    0.99487288681507
C         1.16179558670068   -4.05470387076179   -0.21793178922529
C         2.25930611406282   -4.89341324940180   -0.32185249693749
C         2.67841125319085   -5.65667678699458    0.75851911511640
O         3.71782116592999   -6.51793659346069    0.75156409367588
C         4.45696807230212   -6.68879416126366   -0.44125730666510
C         1.97796002692777   -5.55800550291608    1.99179073170303
O         2.42904968498463   -6.36277532144240    2.98019707864794
C         1.73396899911620   -6.38601938574827    4.21095781229134
C         0.91554867485263   -4.67996733627887    2.10167953112092
C        -3.96402471184943   -2.54873688024951   -0.18366330252041
H        -8.87353336870106   -1.65495048334546   -0.85941568007167
H        -8.86328872944152    0.13686420296951   -0.82264916155794
H        -8.21772067830130   -0.75073458363963   -2.23816373582382
H        -5.38089915001694    0.31117629732420    0.91659002332346
H        -3.17861877347753    0.44729989729304    2.03152395880540
H        -1.73782975685643   -4.23229674947315   -0.21204726200408
H         0.84664292505257   -3.46082827418497   -1.06057750774203
H         2.77653237472799   -4.95472350315994   -1.26470592578323
H         4.93559638067897   -5.75504549634253   -0.74984306858661
H         3.82540488073987   -7.06570612739986   -1.25037453661059
H         5.22089052447851   -7.42652338188834   -0.20442747670697
H         2.23608334734817   -7.14163448974483    4.81135044591493
H         0.68723150202820   -6.66867824862714    4.07087250597260
H         1.79688281674264   -5.42083961388723    4.72017254463141
H         0.35906546208874   -4.59066124382834    3.01878215356410
H        -4.15199672576820   -3.40260242793276   -0.81538457539403
Cl       -0.15125301169960   -0.59591312108153   -0.43276202255959
