72
 energy: -121.699332761088 gnorm: 0.000458862285 xtb: 6.4.1 (afa7bdf)
Ir       -0.30291440766384   -0.88032607274444    1.81124801340617
C        -1.92128749019324    0.33545471415057    4.53579105557720
C        -0.63661234425588    0.05979421883117    3.83449295467629
C         0.16724791112716   -1.10603585612850    4.02899547638291
C        -0.12644841953628   -2.16820754657208    5.03155695362738
C         1.39089014261969   -0.93286271035694    3.28869511391065
C         2.59930717393486   -1.80368284701925    3.36857837091967
C         1.36119977928607    0.36153111128499    2.67918372206858
C         2.50945850594366    1.02528416790431    2.00850837669550
C         0.08392235203363    0.95999921434170    2.97124281836307
C        -0.27043283226612    2.35594981095028    2.67356207479858
C        -0.59087523851517    3.22780653648944    3.71263481277081
C        -0.86755887218961    4.54980955576170    3.41803715468483
F        -1.16693423583214    5.38858260611593    4.42935342654058
C        -0.85030671606858    5.04609358241514    2.12623739637324
C        -0.53720953691396    4.15262296969448    1.11617120602351
F        -0.52739420436364    4.59574761054718   -0.15752465616981
C        -0.24604661320739    2.82406871046263    1.36051597569309
H        -2.43308398997533    1.18908065345992    4.10114885996056
H        -1.71373266039055    0.55538858994638    5.58374301003308
H        -2.57738107279889   -0.53132677655243    4.50819436685606
H         0.61033858173106   -2.96326930365172    4.98508771333384
H        -0.08837290102380   -1.72541504927219    6.02766766268058
H        -1.12272621339861   -2.58247266387493    4.89559778437431
H         3.15066236510747   -1.57164591557562    4.28028724912701
H         2.33003911240309   -2.85624358733317    3.38836123501696
H         3.25093713468477   -1.63091951972974    2.51735164132041
H         2.75098507357790    0.53411797648239    1.06697836612375
H         2.28282523192385    2.06708930450627    1.79994850873859
H         3.38650112394434    0.96785849907785    2.65136719713105
H        -0.59545510078211    2.89941061010087    4.73866076842495
H        -1.06585741863046    6.08043812465858    1.91696336252518
H        -0.01271292456661    2.16180860088262    0.54083043537707
C         5.01327022431544   -9.06902490745189    3.35710601778536
O         4.68578905939601   -8.31267487166578    2.20777542132083
C         3.70782644951150   -7.38005413672252    2.28128808322586
C         2.96805558726853   -7.09245992966438    3.44950210713852
C         1.99490434089741   -6.13352082554519    3.43186452051695
C         1.70383602875462   -5.40530964373920    2.25933270483698
C         0.71669473231159   -4.40469304056218    2.22618701341984
C         0.44182247740589   -3.73123860276029    1.05739259501311
N        -0.55504186683904   -2.74604193364299    1.02001028977186
C        -1.54050168971415   -2.86681687281732    0.18692277281283
C        -2.46724933487384   -1.78133899723205    0.10845875829520
C        -3.57580640775597   -1.74714595270082   -0.74471730903516
C        -4.36523344231792   -0.62294953353939   -0.76059425844078
Br       -5.87518501769293   -0.48139595669235   -1.90163327891371
C        -4.05551409984023    0.47041048457572    0.08160156439832
O        -4.86313283089058    1.52179338055014    0.02596148352703
C        -4.59938359014062    2.66380776834059    0.82500059600025
C        -2.93677146352342    0.34512084645462    0.90656273870693
N        -2.16905264295480   -0.74126382036599    0.92147405213937
C         1.15661391198270   -4.03863136330522   -0.12504725973634
C         2.13907194593211   -4.98189878020080   -0.10471662949595
C         2.44350383460406   -5.69683966038474    1.07865960197843
C         3.43740388362778   -6.68197580908264    1.11838364665507
H         5.37910375417491   -8.42862214273914    4.16454960721962
H         4.15906302798544   -9.65648763298688    3.70497137005688
H         5.80855799823083   -9.74225040322723    3.04304922171723
H         3.16660640241427   -7.63030002744692    4.36237039166785
H         1.43425662437756   -5.92456926851705    4.33054965136944
H         0.13213136597711   -4.20449465702300    3.10987143818115
H        -1.65930667061691   -3.75061567251017   -0.42879457160625
H        -3.79227718826715   -2.58537411906640   -1.38686396356485
H        -5.38128961211549    3.37666927780950    0.57302831523581
H        -4.65581941806467    2.41827732620553    1.88740469123808
H        -3.62289566161992    3.09087692448440    0.58641245794983
H        -2.64957555396704    1.14877178192247    1.56665495585591
H         0.93115232637125   -3.48469898246918   -1.02299308672036
H         2.69798238658253   -5.20392560869031   -1.00073725865374
H         4.00645858682794   -6.91236726282464    0.23162185447143
Cl        0.47066624647204   -0.35738669401134   -0.37537771373484
