64
 energy: -100.714303480870 gnorm: 0.000456841202 xtb: 6.4.1 (afa7bdf)
Ir        0.09319692178601   -1.34316049778929    1.55308365257250
C        -1.95902875365697   -0.16589538607434    3.95812543051874
C        -0.56820197433126   -0.38028551984773    3.47330721198096
C         0.25066519838475   -1.49487962608597    3.82729017531723
C        -0.15389343097648   -2.54398946897966    4.80444479617753
C         1.57101892468226   -1.26636184068049    3.28972294853150
C         2.82241894254276   -1.98603349317824    3.66906441736384
C         1.56568768730503    0.00006504247472    2.62458861980487
C         2.77443232504896    0.70081288587257    2.11945320453604
C         0.22905253544884    0.53209048394421    2.69183452576731
C        -0.14332280499300    1.89702548738759    2.29246606812553
C        -0.71117429492697    2.76388647637836    3.22474735525683
C        -1.00885284157283    4.05851909448219    2.84267312078610
F        -1.55151327392526    4.89116550484180    3.75342822079637
C        -0.77169837935047    4.53421938935591    1.56524174268746
C        -0.20978394891058    3.64890042806047    0.66185726706054
F         0.03256088832137    4.07403815545595   -0.59398151648688
C         0.10913528961842    2.34669943343539    0.99650307668856
H        -2.46378915274415    0.61541187827855    3.39742932748506
H        -1.92732983767301    0.12935288599701    5.00786546988558
H        -2.53993318331257   -1.08315387586965    3.89753855912046
H         0.58283219725332   -3.33651363123334    4.87485544834488
H        -0.25249901555375   -2.08203272332904    5.78747045510765
H        -1.11657860870599   -2.97787385301061    4.54612889628951
H         3.27996896465340   -1.45995397234876    4.50851528734647
H         2.62653850172416   -3.00627327239341    3.98215015913221
H         3.53678626434173   -1.99116141296348    2.85028870465668
H         3.23047248507586    0.15387661639457    1.29619211827062
H         2.52685634219292    1.69904509453260    1.77113505414115
H         3.50855651241311    0.77252708145076    2.92132794564552
H        -0.89501410485343    2.45670635614407    4.24057599775202
H        -1.01063251445200    5.54712100211103    1.28765331225299
H         0.52976289358488    1.68753751145461    0.25260067015745
Br       -4.54142558169888    1.55117303668608   -0.54424219140957
C        -3.53660215178703   -0.06189662252494   -0.43515857515248
C        -3.90613682381516   -1.18866157757527   -1.16837433598117
C        -3.12854144759575   -2.32199918614203   -1.04946479032271
C        -2.02000558560533   -2.30599448112004   -0.19938658301309
C        -1.10732219169660   -3.39989230908087   -0.03952919646698
N        -0.09405699716084   -3.25787398437266    0.74581719774884
C         0.83586809999664   -4.36234734558625    0.84077956673980
C         2.26980596073306   -3.90186098477922    0.53066997700327
C         3.30493947141228   -4.83048169891649    1.17514848594956
C         2.77082475207275   -6.25710586843577    1.25602116051528
C         1.56787870110654   -6.32421317370366    2.20756229232873
C         0.78699015541766   -5.00380461640213    2.23061094290140
N        -1.69274236009571   -1.20783829784901    0.51965985512239
C        -2.42515907103347   -0.10967419261660    0.39469983623539
H        -4.76946459852367   -1.16531825948663   -1.81411317976270
H        -3.36231128174357   -3.21306787947502   -1.60988977827237
H        -1.26762744471676   -4.31177037897246   -0.60565425073216
H         0.53840254199153   -5.12445050661031    0.11134813714510
H         2.40156493101288   -2.87962701840805    0.88897805151579
H         2.40011872659142   -3.88393182632715   -0.55134974837920
H         4.22215864154393   -4.80756462175113    0.58627925440376
H         3.55435130420761   -4.49258964936652    2.18056452529267
H         3.55451578242108   -6.92968153896805    1.60514986644111
H         2.48475370842427   -6.58788746046846    0.25616186964773
H         1.90919911768869   -6.54540430332243    3.21928926836023
H         0.91172643535737   -7.13955494574225    1.90101298805316
H         1.22605464825242   -4.31324222357212    2.94472094779027
H        -0.24738281461524   -5.18640458117000    2.52004069041250
H        -2.12643240112752    0.76472726467427    0.95338338138072
Cl        1.04096501862344   -0.78976800295416   -0.55833838847624
