62
 energy: -98.991125474705 gnorm: 0.000468840431 xtb: 6.4.1 (afa7bdf)
Ir       -0.98621660335196   -1.01611656726148    1.49612584447539
C        -1.89120647278534    2.03995205460544    2.59840756376168
C        -1.05885686147273    0.80575303277133    2.73554553824695
C        -1.33919063442800   -0.31543977899653    3.59816994305926
C        -2.53253935381350   -0.47537760097550    4.47733043435037
C        -0.18227833102377   -1.15586949083264    3.62313577662906
C         0.02359775873751   -2.27894314026759    4.58296665987329
C         0.81559653253914   -0.56403429491478    2.76571988203601
C         2.24683485834118   -0.97415861611576    2.66318428956509
C         0.29379948989364    0.67468212207959    2.27443086239870
C         1.07190753940646    1.69978711147311    1.52998316426703
H        -1.40927156225441    2.85981184919636    3.13116867125790
H        -2.87864574541150    1.89471254368082    3.02651855932417
H        -1.98876364278527    2.32977382218891    1.55389266820862
H        -3.44099673031915   -0.12734669171414    3.99306893732647
H        -2.66623913974770   -1.51342510019312    4.76674073685887
H        -2.38545668724632    0.11519794813895    5.38259677348704
H        -0.76492275017968   -3.02488210957841    4.50774986620694
H         0.98680695516160   -2.75575278264364    4.43127850672783
H         0.00081202641232   -1.87628181200630    5.59624299845378
H         2.67625453581946   -0.62987853159069    1.72643793002040
H         2.36118263027785   -2.05242220987700    2.72308762418422
H         2.80650956282420   -0.52201291451056    3.48285224939912
H         0.43489566911481    2.51750091773803    1.20900602983526
H         1.54512471627234    1.26838757205893    0.65061460485561
H         1.85703239941953    2.09078159102012    2.17718833959768
C         4.20560621127138   -5.69811044779674    2.50062408716955
O         2.96327929582344   -5.01966328568734    2.55959058630193
C         2.36539737677047   -4.64466891971487    1.40864668570782
C         2.88488828265300   -4.84165911973709    0.12950562684312
C         2.17279053539141   -4.41236867468909   -0.97770555089570
C         0.95004312404782   -3.79440064899629   -0.82037041390137
F         0.26769076864629   -3.39284910649465   -1.91705414122567
C         0.41543675536251   -3.56114490370001    0.45219539328769
N        -0.80373078074758   -2.89151828300056    0.62256854979088
C        -1.84222627136398   -3.28816816470984   -0.04379491981531
C        -3.02940916926817   -2.50175159101671    0.04744175532183
C        -4.22214968665219   -2.79798336528869   -0.62253583295513
C        -5.28983304257091   -1.94150293405270   -0.50899061315624
C        -5.15794099586025   -0.78041857035616    0.27368288316776
C        -6.25047055517408    0.14549596528881    0.40978568976291
C        -6.36559164364339    1.35236583260363    1.07031036403422
C        -7.67848139630687    1.80476026189276    0.84519851961785
C        -8.27512436808555    0.85160475673501    0.06784258592088
O        -7.42774884950638   -0.14397402145256   -0.19835834968435
C        -3.93376846011648   -0.56132608876511    0.91560201521551
N        -2.90860951436935   -1.39160419271140    0.81816036079964
C         1.13440766829094   -4.00176332725156    1.55313521922702
H         4.46967985678247   -5.90672184921344    3.53522704031121
H         4.97721638275020   -5.07148302436113    2.04618041708449
H         4.11828902113952   -6.63783534858704    1.94977066639779
H         3.83402022004112   -5.32811262083795   -0.01944533704000
H         2.55902686096735   -4.56170005935952   -1.97319836071541
H        -1.82087793814177   -4.17618370428175   -0.66582175723089
H        -4.28110569901205   -3.68751623370438   -1.22870164859732
H        -6.22037104293242   -2.13781070216423   -1.01675260512458
H        -5.61176339898632    1.85670156370381    1.63734918272168
H        -8.12114759892546    2.70920980252416    1.20716456713537
H        -9.26379001637535    0.77992246683059   -0.34108010860040
H        -3.79161136797465    0.32110041258099    1.51858379715626
H         0.72100460608971   -3.88084631207378    2.53907760936306
Cl       -0.65166432945392   -0.21699148556451   -0.72025441796806
