67
 energy: -110.635106214930 gnorm: 0.000871627612 xtb: 6.4.1 (afa7bdf)
Ir        0.35829663507954   -0.74742283173638    1.64528035946617
C        -2.13270676727191    0.63295748980699    3.55545754364454
C        -0.75222777649177    0.10472991420306    3.41506893960530
C        -0.34422689502248   -1.21323480158779    3.73241101192150
C        -1.22855707004525   -2.30537935024728    4.22638876998225
C         1.09897597339926   -1.26377351745401    3.64509566819765
C         1.97200329411561   -2.36782078760569    4.11036146323177
C         1.58226454406676    0.06230666671879    3.29555616011445
C         3.01351258699823    0.46984864860815    3.31536409326898
C         0.44482638591701    0.89357283217846    3.12464317217995
C         0.47855374059233    2.33254490146887    2.84289384601857
C        -0.19501669415632    3.22423369887393    3.67526413672654
C        -0.10872178112558    4.57947763152096    3.41703116193638
F        -0.75490702616229    5.43116703392973    4.23221009080587
C         0.62530415196012    5.09238299361365    2.36280871480537
C         1.27951013517080    4.18099477746732    1.55379918738385
F         2.00215262870405    4.64097981189930    0.51279125989827
C         1.22222166038849    2.81753600797062    1.76732364613476
H        -2.25178148790656    1.58216122300037    3.04057658191944
H        -2.34158319558365    0.78480623631810    4.61566933719419
H        -2.86684172070170   -0.07715086786694    3.18190886616223
H        -0.82917544667521   -3.28326978968620    3.97514836032230
H        -1.30372462312843   -2.23601386668048    5.31164849523255
H        -2.22791814822703   -2.21488041271686    3.81129572485668
H         2.28308020369084   -2.14012939628172    5.13238627372319
H         1.45179036514586   -3.32093341869928    4.12435931607251
H         2.87325477071492   -2.44190822228879    3.50616420250886
H         3.58890767256155   -0.08550495194619    2.57704365048119
H         3.11614668386905    1.53097843028240    3.10865227282176
H         3.43320022555708    0.25629304524091    4.29754689823176
H        -0.75524367022455    2.88458690386544    4.53013317184082
H         0.67936251979734    6.15217302170094    2.17765810669730
H         1.73079391189097    2.14579511346578    1.09236905418701
C        -0.51588501509958    4.26105789291080   -1.49661500358188
O        -1.18432924045196    3.07739427625348   -1.06042156369135
C        -1.90592224073330    3.12141719604564    0.04919153798094
O        -2.02036953527604    4.07596062278436    0.78065958127063
C        -2.58629380722947    1.81054108755091    0.28884539159878
C        -3.91397733690748    1.78179347483840    0.70263894838506
C        -4.52373952671790    0.53939016138625    0.85786532385848
N        -3.89047979676684   -0.60112017312532    0.68352363940839
C        -2.60172529300952   -0.58114205573053    0.34335914702281
C        -1.95856215913163   -1.87254651614569    0.16251498832027
N        -0.72452016056636   -2.09676975156687    0.45514114705528
C        -0.12734034266957   -3.29625773376122    0.03602080270209
C         0.87240656500810   -3.88199816021712    0.81219350235048
C         1.48537909726617   -5.04641617959320    0.40108484792119
C         1.13887651627980   -5.65209564160716   -0.80519086560750
C         1.79766288869698   -6.91695321135437   -1.24501742844179
C         0.15609852611701   -5.04911693840884   -1.58730204974120
C        -0.47480332122180   -3.89214379513930   -1.17946017141349
C        -1.90899673667829    0.61049331443176    0.10087396089205
H         0.54823010938823    4.04279361934418   -1.57066110068610
H        -0.90957556409778    4.52562592131530   -2.47715484300156
H        -0.68959623916166    5.07154653729455   -0.78803394241654
H        -4.45355358975871    2.69927594604168    0.87247172247906
H        -5.56326329215865    0.45782825450214    1.14111185626364
H        -2.58760922825093   -2.66048344332568   -0.24287713302798
H         1.15329469336703   -3.41749363329216    1.74585955060112
H         2.25083228082576   -5.49282554801500    1.01672788869119
H         1.21432218602118   -7.77161088853565   -0.90105587152301
H         2.79757874864059   -7.00327711951442   -0.82810135755084
H         1.85608850354811   -6.97003861522179   -2.32925192836911
H        -0.11071025431423   -5.48854471498987   -2.53652775826701
H        -1.19936962874164   -3.42157487015472   -1.82609849680741
H        -0.90205597087723    0.60983822758786   -0.29457089010543
Cl        1.68496537774616   -0.43172970990813   -0.17734797010500
