54
 energy: -87.751076679425 gnorm: 0.000446084498 xtb: 6.4.1 (afa7bdf)
Ir       -0.61755164073880   -1.06828734119565    1.52298707879034
C        -2.10775482203932    1.39539781895574    3.40213390780547
C        -0.92674612035969    0.54325787567368    3.08542093823973
C        -0.62825733445146   -0.72407877804961    3.72111585331638
C        -1.44101470343629   -1.35473801751718    4.79875261916454
C         0.70759858635319   -1.09873595737302    3.35409640117044
C         1.48833327442276   -2.21432844827009    3.95503401806168
C         1.18691885431154   -0.14063401976267    2.40739425383237
C         2.58036894744466   -0.01791126492972    1.89314423950313
C         0.17964362413844    0.89991606068414    2.27549905721064
C         0.39536376336993    2.18194310745731    1.55087394494113
H        -1.87805562482817    1.99375867429120    4.28485874387858
H        -2.98446041901023    0.79431594707172    3.62845709256864
H        -2.33612507063049    2.07967552147907    2.58909278445284
H        -2.50465766463412   -1.21407260874956    4.62757508544636
H        -1.23329352510553   -2.41791162322263    4.87764635500862
H        -1.18814176253964   -0.88895369927053    5.75205306931110
H         0.84778669127966   -3.05172726970523    4.21785699031504
H         2.26607978603337   -2.56394179750691    3.28204094513911
H         1.96394387511044   -1.85367107416212    4.86778292721031
H         2.58221282438216    0.32344844108873    0.86092675870705
H         3.11125798688018   -0.96255246857564    1.95785625089366
H         3.11502294857855    0.72121349729431    2.49066824244762
H        -0.52525105798601    2.74976434748781    1.45908997909655
H         0.79148327389129    1.99770111828248    0.55456650146804
H         1.12324266268369    2.78214447671878    2.09710079308430
O         2.98692070976823   -7.69378157906395    2.46305493411201
C         1.97324401063659   -7.04288833452789    2.35595351186130
O         0.79292261130771   -7.46249402127986    2.80003120099022
C         1.91719451127258   -5.69936191246329    1.71744305416677
C         3.08781691133093   -5.15940730879239    1.18815366709652
C         3.06371342857879   -3.91336954785066    0.58426744371273
C         1.88294058441655   -3.19609140744559    0.51351236054688
C         0.70837815557007   -3.73692647674276    1.03861312556894
N        -0.48281689660717   -3.00012406736760    0.95027674646636
C        -1.55017206064352   -3.55555748592323    0.46606340426136
C        -2.72301690903155   -2.74189103633274    0.38392422997009
C        -3.92700812558217   -3.14274458458051   -0.20366091195507
C        -4.97483950111048   -2.24977468588511   -0.27676554358432
C        -4.77936310180763   -0.96633532175467    0.23334250963766
Br       -6.16973527223126    0.33172183940672    0.16244575059794
C        -3.56243471965280   -0.62820574456717    0.80933360369817
N        -2.56253397517584   -1.49455687708258    0.89598563870694
C         0.72230421726247   -4.99295508150648    1.63822247607612
H         0.85210021351824   -8.34282218568621    3.21260325375784
H         3.99974271795878   -5.73123971826765    1.25939735728114
H         3.96746498920453   -3.50096968668456    0.16397242426988
H         1.84081878889406   -2.23467365714029    0.02527029418369
H        -1.54429775259234   -4.57320866318190    0.09408994131855
H        -4.02165823354288   -4.14022386065255   -0.60208859468285
H        -5.91776458457036   -2.52686595685127   -0.72053782224730
H        -3.40065099131680    0.36369150169716    1.20379331800084
H        -0.17803607170895   -5.40856979772993    2.06221736020438
Cl       -0.25353400729883   -0.47235585991819   -0.75881056509558
