54
 energy: -81.542327783696 gnorm: 0.000613416237 xtb: 6.4.1 (afa7bdf)
Ir       -0.44984197142070   -1.34258100827244    1.60178267582633
C        -2.15880798335571    0.60574370728397    4.02533212556101
C        -0.95957076091288   -0.11787720200216    3.52999745380351
C        -0.69659972533752   -1.50724985096021    3.82927419074009
C        -1.58291573388955   -2.37629752439225    4.65452110387261
C         0.67471273461115   -1.77951938574232    3.50285265200454
C         1.46555820309399   -2.93787032259861    4.00043305250549
C         1.20426098031344   -0.61387104632619    2.85555308246615
C         2.62543439826315   -0.37610431009709    2.48573066824774
C         0.18356995466092    0.42040807287787    2.88688781281544
C         0.44879094592022    1.84284594171113    2.53248217518417
H        -2.13005059384901    0.59635838529568    5.11558487047524
H        -3.08072140846081    0.11782962403141    3.71821703362071
H        -2.17647619808192    1.63617568383269    3.68762671348314
H        -2.63015139239224   -2.15463499041137    4.47095674409912
H        -1.40439062893051   -3.42905722446453    4.45476526623554
H        -1.37841512990617   -2.19262733452416    5.71011800969243
H         0.84240950461639   -3.81272616583109    4.16235463278374
H         2.28827077784014   -3.19198587227495    3.33770764480929
H         1.89457531171347   -2.65459205496790    4.96324719303202
H         2.69325052106446    0.16295163632153    1.54363311633646
H         3.17572625802408   -1.30815980798708    2.40360084891192
H         3.09380291161116    0.23719290407489    3.25619413369076
H        -0.45903484491101    2.43692426585292    2.54935675369050
H         0.89011257789574    1.91288846147263    1.54074012257839
H         1.15785521981004    2.26167816760847    3.24629268412711
C         3.55218547375439   -5.79718015214266    2.23154227885054
C         3.57320819725662   -4.75237482923416    1.42372400367233
C         2.93069013380434   -4.70885128094905    0.07311928786143
C         1.78170698506036   -3.69735811355579    0.00702773909588
C         0.59910361055765   -4.15573248289346    0.87480160926528
N        -0.47675506515133   -3.20333394354593    0.78473521182498
C        -1.48912641014932   -3.51039900651652    0.04591371998697
C        -2.47907084813353   -2.51047612990583   -0.20512432348788
N        -2.27758621586971   -1.32280225180236    0.41552766080089
C        -3.05819851761057   -0.30292875980881    0.06620693106238
Br       -2.68430070286068    1.38589318630582    0.78330867504018
C        -4.12089368411005   -0.41150360234970   -0.82076440063467
C        -4.38168493651578   -1.63609570646474   -1.41737986276598
C        -3.53278146565887   -2.68151859404375   -1.11196875728524
F        -3.69156627198104   -3.87577201138618   -1.69197492882827
H         3.05961190406465   -6.71489534194064    1.95509988578320
H         4.03769753069427   -5.78922058853676    3.19245760196311
H         4.09077751507499   -3.84705748452070    1.71564986986210
H         3.68192707633306   -4.41305351649436   -0.66302865622165
H         2.56445631168656   -5.70069898415187   -0.19686791646811
H         1.44361835847632   -3.59679834140133   -1.02523683160788
H         2.12054956316246   -2.71630254932358    0.34157826082664
H         0.26157611650266   -5.13798311776136    0.52906218364595
H         0.92997477516701   -4.24156264444618    1.90904334798486
H        -1.57865284468777   -4.47796375954517   -0.43775799444876
H        -4.72807563714108    0.45215961184155   -1.04000136793533
H        -5.19608103367744   -1.77060449739236   -2.11116758552359
Cl        0.42444715396998   -0.45138485756039   -0.43625840287674
