74
 energy: -124.342891231199 gnorm: 0.000516906192 xtb: 6.4.1 (afa7bdf)
Ir       -0.56284023962981   -1.04997334588123    1.54895105503952
C        -2.20694777926783    0.88324103736499    3.81584044738262
C        -0.93552218804493    0.23878695526759    3.38256627411966
C        -0.50836077024637   -1.06996209939304    3.78888398725537
C        -1.23176137368273   -1.93333059193105    4.76654133188714
C         0.84897303162347   -1.25378960245665    3.33683091668201
C         1.80627075677179   -2.30125035074880    3.79009046698458
C         1.22051130454481   -0.11173459910378    2.57599974336491
C         2.58463863250135    0.16258742991085    2.04721812525623
C         0.11060581722043    0.82343524443661    2.59732582042959
C         0.23028404940045    2.22548114050828    2.17301106349312
C        -0.09907066794462    3.25145744116214    3.05784451619622
C         0.07999828784747    4.56321060201644    2.66152034320904
F        -0.23745252463105    5.54769986785269    3.52743295823745
C         0.57378868689945    4.90798153542539    1.41621775099171
C         0.89063111204619    3.86732558753757    0.55989110076439
F         1.37279193685706    4.16521343731244   -0.66339674190989
C         0.73325857953092    2.54065340002044    0.90978973173250
H        -2.42144439632576    1.77211146210104    3.23045818812498
H        -2.12083549084956    1.16323320213892    4.86648473657630
H        -3.04467830503991    0.19497777162819    3.72944972045920
H        -0.95627238307769   -2.97767169147868    4.65497563180278
H        -0.97303453887692   -1.61903097377054    5.77839369749302
H        -2.30776331202622   -1.84042494471214    4.64974787919455
H         2.57231460443881   -1.82553353446702    4.40381977508332
H         1.31335144246287   -3.05648409607251    4.39196798284469
H         2.30329144733216   -2.77965592773912    2.94915239452888
H         2.70443730417379   -0.25588689902816    1.04819704504244
H         2.75887436121207    1.23387779975574    1.98258599530228
H         3.33379443331992   -0.28919057199823    2.69313411727226
H        -0.45965751669726    3.04493388259896    4.05139137550190
H         0.70824394991417    5.93693254396566    1.12744100032306
H         0.96985343500386    1.76500199934462    0.19750919472290
C         0.80216997341321   -2.58436114240127   -3.73042457190608
O         1.19557297381716   -3.21908942998166   -2.51701921289507
C         0.23601227719040   -3.49522312943082   -1.64560763435485
O        -0.94603509356723   -3.31359354142046   -1.85515840824612
C         0.77542508998588   -4.14509553854931   -0.41493977646504
C         1.85889548861501   -5.00776420702123   -0.52955548314003
C         2.34404805869173   -5.69234943324681    0.58384700067603
O         3.37492385058382   -6.55554983259348    0.57047037426431
C         4.05304803468515   -6.80971947723955   -0.64673540582671
C         1.71944259240497   -5.49753740666368    1.82334319839873
C         0.67317981507913   -4.61352255072207    1.94872470449316
C         0.19306306257086   -3.91972577196340    0.84015132577036
N        -0.85319770847132   -2.98692754679887    0.96504466686221
C        -2.00421073970891   -3.27618395002023    0.45759917408687
C        -2.96080537570526   -2.21480909126113    0.34607210434684
C        -4.27140351045148   -2.42271258702358   -0.12220073513683
C        -5.10299287903131   -1.34857928597344   -0.26654255909548
C        -4.60172284498630   -0.05269667984320   -0.02159374579517
C        -5.38259851446527    1.10292224692971   -0.22168643721668
C        -4.84862269211205    2.34959793074780   -0.03762399741590
C        -3.50170349763991    2.48679448799109    0.33267976984610
C        -2.72286678010208    1.38399523079235    0.55961249870719
C        -3.25059470584437    0.08735679309828    0.41826875511647
N        -2.48291091702695   -1.00430580879291    0.66777715981632
H         1.68840143072748   -2.55911587120494   -4.35790512828049
H        -0.00261323772560   -3.14532108960553   -4.20851865779853
H         0.45419694623148   -1.57179759232970   -3.51735200638473
H         2.29600762288927   -5.14582734046119   -1.50425046012237
H         4.49533427557681   -5.89620374712627   -1.05223684547407
H         4.84199046980050   -7.51562476480050   -0.39568327012768
H         3.38435504679614   -7.25887976091994   -1.38574017616498
H         2.08183244143282   -6.05491622549140    2.67144641363646
H         0.18579046144933   -4.47886034841757    2.89952720480628
H        -2.23568032120238   -4.26931855360614    0.09312389902062
H        -4.59032375445956   -3.42592437509656   -0.35056228272719
H        -6.12502760301599   -1.46941885706213   -0.59078189791537
H        -6.40646046997658    0.98207879575402   -0.54017712925664
H        -5.44991333488140    3.23068272332510   -0.19668254929317
H        -3.07614639033386    3.47316332906114    0.43372805918373
H        -1.67903213072149    1.49107025908985    0.80104399552974
Cl        0.38346690274225   -0.71250997131341   -0.59549855891767
