67
 energy: -119.499149754306 gnorm: 0.000521895989 xtb: 6.4.1 (afa7bdf)
Ir       -0.81250250445861   -1.09875225416838    1.20687664528904
C        -2.15399864900378    0.78645894601439    3.75310121714572
C        -0.97425966898400    0.10346001623789    3.15557959327273
C        -0.59789749240951   -1.25607448915771    3.42478320920368
C        -1.28747463321884   -2.15431699711527    4.39313036846059
C         0.70283899190506   -1.47976829045351    2.84672827335403
C         1.58772035285118   -2.64132570384131    3.13281328203029
C         1.07190966161989   -0.31434215501698    2.12115360163773
C         2.40769922624323   -0.05663429503985    1.51778131250966
C         0.02238158739395    0.67798628700995    2.31057418198005
C         0.16884075872849    2.10706859962977    1.98373624674165
C         0.13118636077334    3.04227965193997    3.01678111741384
C         0.32317441196080    4.37816778626870    2.71945589266909
F         0.29203766947301    5.27508868382859    3.72571972603759
C         0.54594291529461    4.83137513371481    1.43136529650081
C         0.57263446647831    3.87846209913079    0.42793298578615
F         0.78168135192727    4.28391462269297   -0.84048648717597
C         0.39128669896444    2.53085433288829    0.67520702627610
H        -2.31324580894288    1.76499604469641    3.31082249077048
H        -1.98334509722292    0.90721611340549    4.82324717311417
H        -3.05679868765700    0.19192508023883    3.63278942765404
H        -1.05602997983288   -3.19701680432103    4.19650219069135
H        -0.94692993422050   -1.91784084674723    5.40196387804984
H        -2.36416541641326   -2.01331991336040    4.36008077912958
H         2.13402189890082   -2.43716572343263    4.05449618053603
H         1.02001996220391   -3.55639143748891    3.27544329252378
H         2.31322468068211   -2.79288110342817    2.33913966111757
H         2.77203102226155   -0.93017315242900    0.98335199389960
H         2.37246510502724    0.78526778161389    0.83341387264677
H         3.11758871950465    0.17290329765385    2.31321330258880
H        -0.01693821537507    2.74177275828369    4.04079281838850
H         0.69293391683184    5.87723692137039    1.21963426680948
H         0.39998990052786    1.82859299379722   -0.14460576965525
F         4.16844082061668   -6.45654959935756   -0.41545729969189
C         3.18510988576882   -6.76589017161856    0.44137865056971
F         3.76695229285076   -6.88286349538071    1.65480786221455
F         2.76546739003026   -8.00190623932651    0.11480771675327
C         2.06486063623645   -5.76352006389713    0.45377679397481
C         2.23159352299695   -4.50682387567454   -0.11682284663794
C         1.19803545453631   -3.59067149284907   -0.06504758719003
C        -0.00881706989940   -3.93523887073745    0.54199911816765
N        -1.05390154658143   -2.99957012148922    0.57019340848303
C        -2.24554973413226   -3.35277277540441    0.20462027325794
C        -3.24965704662737   -2.33455663748532    0.19489156710332
C        -4.58030729262939   -2.57734151122749   -0.19599554377655
C        -5.46318482076485   -1.53474160062895   -0.22962105992051
C        -5.00547469802126   -0.23132776685174    0.05671094328178
C        -5.84782068021513    0.89515557795960   -0.02503472780947
C        -5.35822573168119    2.15249371732006    0.20547235322515
C        -3.99939278621393    2.33210145849789    0.51194217228591
C        -3.15881237314207    1.25775993461088    0.62481757811204
C        -3.63623174871103   -0.05104627274602    0.42258349866009
N        -2.80715576284761   -1.11639275915526    0.54869268163125
C        -0.16990090966364   -5.19845284784767    1.11332802352520
C         0.86866880519868   -6.10862016947417    1.07444559176158
H         3.16172880553477   -4.25119504886764   -0.59955050189929
H         1.30041570430151   -2.61718646097668   -0.51996223207878
H        -2.46070826176726   -4.35453971289469   -0.14898700170287
H        -4.87678291527351   -3.58107097189785   -0.45206303982103
H        -6.49816427166094   -1.68634382646155   -0.49477972371545
H        -6.88355865822650    0.74477259080376   -0.28758418621493
H        -6.00614591443776    3.01204587335715    0.13682640721030
H        -3.61619017120841    3.33024692617326    0.65504600716357
H        -2.10896471105507    1.40095545959226    0.82239665396057
H        -1.09494505838799   -5.45735336202602    1.60416119143758
H         0.75434685286915   -7.08601259591205    1.51695615855310
Cl       -0.28111657958878   -0.50331327253367   -1.03627094827591
