75
 energy: -132.020202496843 gnorm: 0.000536395810 xtb: 6.4.1 (afa7bdf)
Ir       -0.10873726588071   -1.44293114279473    1.40733538784440
C        -1.63864183948818   -0.29277737290561    4.18948243591050
C        -0.37637240772496   -0.49542519840182    3.42724318339673
C         0.51262687343760   -1.60158049787169    3.60380791176759
C         0.35440666120322   -2.64401536070151    4.65497795779293
C         1.66858240935269   -1.37935345030809    2.77499320806177
C         2.93033234180935   -2.17401114450074    2.79603548751381
C         1.53402758833266   -0.08543462663140    2.16286423099170
C         2.60927419353711    0.63283496256676    1.43472675619549
C         0.24560692758563    0.43693997095580    2.51733347034899
C        -0.23426340768272    1.79016830271319    2.19901127133714
C        -0.62485631275749    2.65126023727415    3.22242625742252
C        -1.05649530687625    3.92422279729573    2.89874542831196
F        -1.42845214027425    4.75064792479113    3.89527003696615
C        -1.12447453651389    4.38107163537977    1.59450599445620
C        -0.72973371128764    3.50243929946676    0.60095893906137
F        -0.78773611835906    3.90629754645479   -0.68279973884460
C        -0.28364616469517    2.22361425742242    0.87428211675402
H        -2.25087497125230    0.48817132967779    3.74753101310526
H        -1.39432087278462   -0.00265427518877    5.21225235171753
H        -2.21466975231986   -1.21354957657783    4.24234889488724
H         1.12387270787946   -3.40574858049473    4.57783782315413
H         0.45130100326140   -2.16173570847153    5.62860709164606
H        -0.62915030810234   -3.10662335640337    4.61888581290356
H         3.53105565444904   -1.86575412904222    3.65225425806143
H         2.72898546139889   -3.23810767144845    2.88491520990929
H         3.50497094848155   -2.00181336787659    1.89101326400062
H         2.85027656876370    0.13392406840741    0.49675835917357
H         2.31117904024743    1.65426359864494    1.21411009374064
H         3.51029095227565    0.64298617216092    2.04732379836309
H        -0.57204088952293    2.35590784209387    4.25707639093986
H        -1.46786127579275    5.37539780346540    1.36327695108448
H         0.00287741576235    1.57125339533488    0.06372315807912
C         2.82330953908132   -8.47042376121571    7.78027850059586
O         3.71372217042477   -8.13817422294404    6.73519099468708
C         3.21585459481564   -7.58289982936648    5.60055029537948
C         1.87165284027836   -7.30739466750465    5.36424768756126
C         1.48257087341043   -6.73421888690715    4.16714918334004
C         2.40872176639986   -6.43089162678125    3.17367610623365
C         1.98616575869659   -5.83245261488871    1.89931934389793
C         2.57763803797302   -6.21757656245458    0.69395150820923
C         2.16814731449343   -5.65952768005863   -0.50484672156114
C         1.16601877475377   -4.70766016950964   -0.53416302484456
C         0.58243453050974   -4.29772225558476    0.66607435226407
N        -0.41122434372996   -3.30682224014454    0.66057465994992
C        -1.44217929279377   -3.44960897379503   -0.11704808319102
C        -2.36196371712960   -2.35692304183173   -0.19366384048308
C        -3.50296268289362   -2.33071406837316   -1.00223420583358
C        -4.28534643296886   -1.19568417975626   -1.02472380036186
C        -3.89638779843321   -0.11002852128433   -0.23257884498271
C        -4.72589946083165    1.14694550520018   -0.22410410647994
F        -4.09639458631635    2.17797006988107    0.35718526815811
F        -5.06146354756805    1.53839499761154   -1.46062360031574
F        -5.87919826316844    0.97892621138566    0.44799136422080
C        -2.75990600700736   -0.20183306567961    0.55277395343796
N        -2.00934782070137   -1.29685628261269    0.57936225269685
C         0.98836393263113   -4.86281791933254    1.87092380069532
C         3.75458131310130   -6.71376606257075    3.41769364431100
C         4.15328728590351   -7.27321737502061    4.61004617179056
H         2.08646924446878   -9.21146554544715    7.45679294702450
H         3.44268393521269   -8.89855780989094    8.56621637695448
H         2.31164015645373   -7.58309014799991    8.16416386313237
H         1.12098301151457   -7.54046261810189    6.10215110900986
H         0.43249647413463   -6.55182644314133    3.99654623467001
H         3.34650231264747   -6.97400041545749    0.69668127721900
H         2.63140585502532   -5.97173587122071   -1.42786000089418
H         0.86479011374195   -4.24457906439384   -1.46032979306447
H        -1.59434379015356   -4.35318692812310   -0.69527199495557
H        -3.75111649780918   -3.18813576858253   -1.60691994400228
H        -5.16894803488415   -1.13277021379158   -1.64084550155452
H        -2.44661885884866    0.63289182609734    1.16347849691035
H         0.49534323611918   -4.56098911443862    2.77935255879235
H         4.49894747780187   -6.47001682959726    2.67524575398518
H         5.19218061769365   -7.48724257674552    4.80534948228604
Cl        0.60441750157505   -0.97542894104337   -0.80705153099869
