61
 energy: -103.385238320258 gnorm: 0.000395392308 xtb: 6.4.1 (afa7bdf)
Ir       -0.56849185893824   -0.89027151828806    1.20225334537461
C        -1.77419708715157    1.54364444449832    3.29749371451048
C        -0.66677082180660    0.64824257354861    2.85756965234403
C        -0.40001145418432   -0.66146699510763    3.40740087122280
C        -1.16774033815938   -1.29332884942211    4.51796332402916
C         0.88687582963269   -1.08926831082156    2.92592727988039
C         1.63836582685145   -2.27602044692575    3.42042963572942
C         1.35355389542148   -0.11470713078874    1.99832892056090
C         2.70239208976875   -0.05017253528849    1.36676879082015
C         0.39428526203280    0.97761600902152    1.97415585339965
C         0.62999744264968    2.27740560772285    1.28629691047696
H        -1.46546088635820    2.05774525195125    4.20878115195952
H        -2.67544932296179    0.97933442937042    3.52215241903506
H        -1.99805848389648    2.29894632632687    2.54901196734439
H        -2.23514275258434   -1.12292055906586    4.40695077880064
H        -0.98371745942592   -2.36241942847623    4.56614834897586
H        -0.85319349283524   -0.85191226914950    5.46441207433239
H         0.97123143676870   -3.10022258410261    3.65830779152121
H         2.36966237679305   -2.61642369596425    2.69272919869724
H         2.16988700418049   -1.99855607731827    4.33124294599515
H         2.62954094879909    0.30731635723419    0.34215410339605
H         3.18904415288959   -1.02090661343584    1.37040552009184
H         3.32566506717571    0.65086096578715    1.92264389397501
H        -0.25601220185266    2.90451114233546    1.30194838883002
H         0.92334348132455    2.11453468145485    0.25124959997475
H         1.44170907451865    2.80632327736083    1.78625997765410
F         5.01228334344527   -5.52194085016508    0.96629905087515
C         3.89964275022476   -6.18929763713964    0.60331620616808
F         4.15448735172495   -6.68839211140235   -0.62479744792037
F         3.80865990626824   -7.24557778340451    1.42491238469795
C         2.67951509010294   -5.31329297244234    0.61772821308721
C         2.75235569635712   -4.06182452400453    0.01162534604214
C         1.64399027360994   -3.23929918779426    0.00596846256563
C         0.45319541670654   -3.67214232768360    0.58940909739032
N        -0.65993780373608   -2.82155226205956    0.57866423381016
C        -1.79943965846620   -3.23771963191169    0.11602831339599
C        -2.87159208266598   -2.29840145766749    0.10963313074762
C        -4.13984127810563   -2.53824958876199   -0.43337597338287
C        -5.07210864415193   -1.52913054559205   -0.45087809011687
C        -4.72833454944683   -0.27070983254090    0.07373987638470
C        -5.64359211505533    0.83638549277127    0.07100962493467
C        -6.94381830332492    0.94905409047706   -0.38166912253813
C        -7.33502468493864    2.27785484056429   -0.13726668089876
C        -6.25711474253092    2.88542551920754    0.44454228418817
O        -5.24010196430055    2.03061529473585    0.57436471894029
C        -3.44281342713780   -0.11508676257398    0.61049243017418
N        -2.54887025445926   -1.08775782513866    0.63880562927089
C         0.38314294262551   -4.93141641821709    1.18390054355587
C         1.49771967098804   -5.74961220363475    1.20299860705976
H         3.67439379040964   -3.73983453929445   -0.44735818999098
H         1.67455899392938   -2.27213843234768   -0.47087065985229
H        -1.91783294890203   -4.23217795289467   -0.29832252235803
H        -4.36263176749760   -3.51011118637006   -0.84292593787447
H        -6.05064286462250   -1.69295454256472   -0.87034159837883
H        -7.54223938950853    0.18414189582235   -0.83087495234026
H        -8.28197171566546    2.72340007123479   -0.36129545982086
H        -6.10794983447186    3.88775380902222    0.79488895999499
H        -3.15191846294040    0.83975581640973    1.02150804586590
H        -0.53449432850109   -5.25968407001314    1.64606009928855
H         1.45168290777733   -6.72055771959171    1.67064951323532
Cl       -0.19956404239609   -0.30314151748817   -1.08607459511945
