72
 energy: -125.262351712170 gnorm: 0.000193036765 xtb: 6.4.1 (afa7bdf)
Ir       -0.41050572120976   -0.84708471132148    1.49035659175548
C        -1.66782794048153    1.10828207407989    3.98878429898982
C        -0.48472035372744    0.49621340263311    3.32620312682120
C         0.09101531548677   -0.77236541977078    3.66978934523179
C        -0.36233766456108   -1.64414224606520    4.78835704575288
C         1.32939690497299   -0.91134768656765    2.94369973084637
C         2.36751036956683   -1.94370815591706    3.21187170234619
C         1.46638226938546    0.21116225259818    2.08014829212947
C         2.67748123539634    0.56934177965865    1.29382375041684
C         0.32175529129861    1.08697391976450    2.30575534401964
C         0.22973984599979    2.47967262474882    1.83191100097424
C         0.21480121533719    3.50995957697257    2.77080572292761
C         0.18032903857986    4.81922359283374    2.32885621379994
F         0.17242343783244    5.80997870846455    3.24347622081372
C         0.15477927501981    5.15309129963051    0.98644165962846
C         0.16390216821380    4.10628245143960    0.08093607775860
F         0.13447343069325    4.39275584662711   -1.23579837233868
C         0.20165359423875    2.78163090017067    0.47322451148956
H        -1.99637409846805    1.99985442368825    3.46215152969259
H        -1.39301357439506    1.38976291788642    5.00579533367465
H        -2.49323094992190    0.40345620637523    4.06081695971686
H        -0.06941323845409   -2.67736812464098    4.62540094507100
H         0.10249298209864   -1.30450210642676    5.71480901175171
H        -1.44007292676762   -1.59366697456095    4.91427681102778
H         2.97002999228647   -1.61299494795705    4.05852035169605
H         1.92259005410209   -2.90133723206838    3.46810463560844
H         3.02457210028628   -2.07496294450120    2.35810288230719
H         3.17606707368440   -0.31768220783476    0.91382417448582
H         2.42653002962535    1.21957336700757    0.46118918265025
H         3.37403971671598    1.10007204909557    1.94442585191529
H         0.25606496028361    3.30788658898862    3.82853587129366
H         0.12996128656019    6.17982055779640    0.66136933629135
H         0.18679858070215    1.99974295661318   -0.27007899103055
C        -8.57556419506098   -0.68774780399875   -0.49064852193538
O        -7.20753894068287   -0.56803339562014   -0.09875067047912
C        -6.45623356279381   -1.65507563203311   -0.18614343032050
O        -6.83930740557037   -2.73445743373097   -0.56901156120614
C        -5.04553197628412   -1.39835995443579    0.25227342142254
C        -4.60584121022807   -0.13990973960854    0.66869951477790
C        -3.28843203216085    0.01235572199668    1.06149973662221
N        -2.41975532751888   -0.99574272258677    1.06877915299058
C        -2.82950092153853   -2.21941500213637    0.64815219863812
C        -1.78733327559002   -3.20272123576597    0.63125517494536
N        -0.60593002382165   -2.80411374637671    0.98184505904258
C         0.47304751043622   -3.69763829201280    0.95003663135184
C         1.65670043890834   -3.31306412795687    0.30729474246711
C         2.71092009877447   -4.19098213966638    0.22765253866478
C         2.63908548335508   -5.46633185415631    0.80578186813651
C         3.70980564570491   -6.43802988971744    0.75856598083277
C         4.98434088249002   -6.11509283248152    0.05873834390601
C         3.50945686183364   -7.63415870382569    1.36047013463777
C         2.28156295943793   -7.98247525177833    2.04131912071964
O         2.05536496672670   -9.03791811279411    2.59024771019589
O         1.29414111336541   -7.03294959116529    2.06230764940112
C         1.45325262591500   -5.83032634213745    1.46800400501509
C         0.37198751777428   -4.95424950087622    1.53118606958146
C        -4.14012207215097   -2.44968931903222    0.23598739228623
H        -8.64611294491420   -1.14172433163765   -1.48020927457759
H        -8.97371199167626    0.32273841502630   -0.49740958510530
H        -9.11568033616573   -1.31023265231964    0.22434498955003
H        -5.28161978495463    0.69909831098268    0.68376927009053
H        -2.91596773540999    0.97579579618420    1.37665353017993
H        -1.97455757574259   -4.21311653293856    0.28731716825465
H         1.70424866772971   -2.34184671651822   -0.16096764559828
H         3.60787062890163   -3.89589557949390   -0.29101334751489
H         4.79153260339603   -5.88808350218811   -0.98833970056262
H         5.45747844246598   -5.24689601453419    0.51337340924201
H         5.67022113666935   -6.95503866900466    0.11309916663233
H         4.26508624066731   -8.40348187200653    1.36121634254499
H        -0.51855658526186   -5.26597391522078    2.05319597355701
H        -4.45500621698497   -3.42556981530502   -0.09991592055238
Cl       -0.19223341038831   -0.44672575853391   -0.85037278732507
