80
 energy: -118.982036535339 gnorm: 0.000351324247 xtb: 6.4.1 (afa7bdf)
Ir       -0.11814994297044   -0.17325316361796    1.82535456343297
C        -1.72903723327321    1.38058040702617    4.44147542168546
C        -0.57999590699937    0.58797153521766    3.91704486341534
C        -0.57262109547615   -0.85509265086487    3.91505156285662
C        -1.67388657016966   -1.70366660854008    4.45397904274929
C         0.76562878908809   -1.29356989306893    3.61676746000721
C         1.31248342714571   -2.66793379540402    3.79927788973372
C         1.54091776332828   -0.14145673305695    3.31903912742075
C         3.01196530742377   -0.13015321674756    3.08320821508409
C         0.70627233243695    1.04006229831796    3.50075991621980
C         1.28256975553695    2.42959218739056    3.53646347490482
C         0.54408428402295    3.46554300714966    2.68284547393864
C         1.29530058103727    4.79380477357301    2.72380923036318
C         1.41946877751280    5.29448771065993    4.16105004096634
C         2.12565870283025    4.25720250170504    5.03054597596134
C         1.38535198592537    2.92314261316523    4.98895287544497
H        -2.67169038361078    1.03755278696550    4.02011040614060
H        -1.61645021717222    2.44157081669067    4.25025769231433
H        -1.78059647977768    1.23274370032509    5.52109112551617
H        -1.60755682095648   -2.72230698703121    4.08376898503258
H        -1.60086221170024   -1.73259797179929    5.54197080052420
H        -2.64752325387390   -1.29889589857859    4.19263584428956
H         0.52149017560354   -3.39059972533529    3.96640935073654
H         1.89994301345231   -2.98269122989819    2.93985130507298
H         1.96685375219728   -2.66672755397038    4.67150661079278
H         3.37610375389021   -1.12954932902322    2.86463372820254
H         3.26837282539746    0.52016189911196    2.24929172476828
H         3.51920389087539    0.24111731889340    3.97409087908953
H         2.29901310338327    2.36557289280494    3.13670700946591
H        -0.46493025807011    3.63196843217026    3.05995507648599
H         0.47962907041599    3.10551931818056    1.65454389695535
H         0.76887169088309    5.53284973923888    2.11667022042548
H         2.29213154360896    4.66451363991505    2.29658379332507
H         0.42403856969876    5.49203015119747    4.56616685589380
H         1.97628135880677    6.23343926434254    4.17979398282777
H         2.18210439788507    4.61278125052136    6.06132125461731
H         3.14797732151973    4.12044068802055    4.67012564468373
H         0.38828980975009    3.05077606890978    5.41079073064959
H         1.91490692814380    2.18470534238398    5.59392018670117
C        -5.59216934188776    4.11060587718029   -2.87358030228118
O        -4.73469948253296    3.46602018314112   -1.93143253437440
C        -4.20593223639225    2.30428043716467   -2.29302881442034
O        -4.40471372323872    1.75818415922900   -3.35263098826641
C        -3.32289808127953    1.73326833202373   -1.22932976971842
C        -3.09499530498448    2.38334961206882   -0.01224511557726
C        -2.25570041597074    1.79622345205653    0.91321863721224
N        -1.65258615925332    0.62520340653299    0.70729784546770
C        -1.87045736878066   -0.01638921717290   -0.47107081261226
C        -1.16915315304161   -1.25822087935490   -0.58641606338742
N        -0.44859260768403   -1.61798590522756    0.42743270829452
C         0.29988458465832   -2.80329321908021    0.34583793965469
C        -0.02319572919595   -3.88560578630692    1.19096602203602
C         0.67409170774518   -5.05550029268176    1.09942142105610
C         1.74392590643814   -5.19941063966979    0.18756437882510
C         2.47888764059502   -6.39634459543379    0.09281775240083
C         3.51202456381659   -6.51148322066274   -0.80967096047194
O         4.28105086258824   -7.60985843147280   -0.99015886722840
C         4.03189670761669   -8.75560787009908   -0.20051691359094
C         3.84014591843759   -5.41238863395321   -1.64375087847590
C         3.14389770555729   -4.24593436927637   -1.56691243218421
C         2.07327651912489   -4.10195801962429   -0.65352738629235
C         1.32234031897068   -2.91919285202434   -0.57055294579741
C        -2.69979184963746    0.51646730514327   -1.45635159710176
H        -5.91317251617042    5.03420673377693   -2.40075442355758
H        -5.04896674337998    4.31609382344274   -3.79735553536229
H        -6.44775308296938    3.47303290997289   -3.10130858864579
H        -3.56556312118916    3.32883921190977    0.19879222153424
H        -2.05931267718849    2.28204438830173    1.85603138686674
H        -1.24458167855491   -1.86842248004634   -1.47858517951057
H        -0.85298943422366   -3.78080142095311    1.87079559855082
H         0.41198298792682   -5.89368408347479    1.72684347012968
H         2.20648517903308   -7.21349144938058    0.74158516496508
H         3.02427765066064   -9.14398374483959   -0.37314524324834
H         4.76466833002647   -9.49454540244103   -0.51872821516478
H         4.16915927562262   -8.54036909918418    0.86287407880184
H         4.65728577032878   -5.53871527881802   -2.33618865059787
H         3.39965576672015   -3.41410851167033   -2.20549606560760
H         1.57246081299874   -2.08039592899982   -1.20245688795053
H        -2.85176418072745   -0.00177619548847   -2.39027635616833
Cl        1.27005214155444    0.78630910868733    0.13636766296745
