80
 energy: -114.264856260030 gnorm: 0.000148678689 xtb: 6.4.1 (afa7bdf)
Ir       -0.51107498491919   -0.93941268434049    0.59995362058207
C        -0.64067399276687    1.78360180471059    2.74207058154900
C         0.01557544513776    0.53234135239107    2.26212505370372
C        -0.27763416231334   -0.78136867299931    2.80902443387641
C        -1.26727984960843   -1.03622376646331    3.89568302499231
C         0.72359262627827   -1.68306169327265    2.34891979780538
C         0.95859167039794   -3.06518752487824    2.84731574109697
C         1.53739827968682   -0.98243973886055    1.39822147141274
C         2.78815099232128   -1.48988575292644    0.76796750944122
C         1.13147383688996    0.41131525634581    1.40258670320910
C         1.89202275014048    1.49836981892800    0.72054976389491
H        -0.40354288631121    1.91959631533042    3.79749352838127
H        -1.72330904765301    1.72605679116931    2.64976608763377
H        -0.28365531083945    2.65084015752016    2.19592006863710
H        -2.15554445156416   -0.42322358130472    3.76619674607761
H        -1.56246384796846   -2.08164820004123    3.92327703536976
H        -0.82037224867889   -0.78502489713739    4.85862084541567
H         0.03777028791902   -3.52970043429279    3.18973163272633
H         1.40942396340767   -3.69276066831435    2.08303676288334
H         1.64643429717970   -3.01631316775044    3.69256961514115
H         2.94051213299060   -1.03250970509035   -0.20615497051673
H         2.75938151093073   -2.56913864173352    0.64498521812039
H         3.64032796891486   -1.23716669535330    1.39991438782756
H         1.40877090963590    2.46244854686640    0.84637742874445
H         1.98583572209925    1.29132900772958   -0.34426791158433
H         2.89591959850937    1.55198872353559    1.14110050367809
C         7.05378915004996   -5.02463728141465   -4.76185901276588
O         5.84390092817060   -4.30838026420895   -4.89138296840330
C         4.88093209037233   -4.47103560783706   -3.94477333052149
C         3.69261900702441   -3.76581782191754   -4.15512223119429
C         2.64842326959665   -3.86935658530919   -3.26495008615280
C         2.74752553736960   -4.68407946243899   -2.13448035210688
C         1.61400666640789   -4.82249674412975   -1.21032186907535
C         1.33905674149217   -6.04006766614871   -0.58452624326996
C         0.25615993076933   -6.16650518519146    0.26800776234204
C        -0.58579345144616   -5.09546524130072    0.50146793652281
C        -0.32898175861053   -3.87284888728607   -0.12388500690962
N        -1.17111931244423   -2.77138402538972    0.08815589402405
C        -2.44814556828456   -2.93379310645783    0.13351813080172
C        -3.29474949975371   -1.80031569071446    0.38671423782954
C        -4.63161342438285   -1.97873312000371    0.69239482045728
C        -5.35871168333342   -0.85478846780938    1.08467175201096
C        -4.78424916749957    0.37717364494971    0.94769830446910
C        -3.47749017569337    0.51780882164349    0.38339486453771
N        -3.08627078897253    1.71995587701154   -0.05361107531054
C        -1.76689362598812    1.99327873484251   -0.59020632162851
C        -1.44888774117004    3.47945632853522   -0.47976884744794
C        -2.37211446452899    4.29679440922092   -1.38775496304365
C        -3.71609329729744    3.57833120446228   -1.52686971519349
C        -4.05629032663002    2.79084657119181   -0.26318841684685
N        -2.68708400525758   -0.58372060297246    0.30735122134364
C         0.77703938938574   -3.73955841115657   -0.95678450824465
C         3.93845931606700   -5.37315050923981   -1.92661652608360
C         4.99646170573975   -5.27074915359794   -2.81177825745593
H         7.59272192607209   -4.73763170672106   -3.85400464774686
H         7.64677725778505   -4.75573555202540   -5.63410557086386
H         6.87925910983738   -6.10479487534121   -4.76075415239556
H         3.61464625639153   -3.14675811819106   -5.03499942267101
H         1.73525276437488   -3.32942158941972   -3.46149684251683
H         1.96666460407718   -6.89550798394616   -0.77916880890175
H         0.06250296973967   -7.11153125034006    0.75186373044086
H        -1.41700033576907   -5.19439679126762    1.18240711590951
H        -2.90380027896703   -3.90242307653812   -0.04309046437520
H        -5.06361162853085   -2.96407743499204    0.69772580551986
H        -6.35402654632972   -0.95690488911855    1.48676552507529
H        -5.30841952800994    1.25259813528267    1.28886494453310
H        -1.70689326335307    1.67337177783599   -1.63512308669886
H        -1.03313893295242    1.40974213060181   -0.03410409867924
H        -1.57545039177495    3.79558478495462    0.55631963894904
H        -0.40796429973017    3.64052093096540   -0.75709971483548
H        -1.92379374797974    4.42047327282976   -2.37370891548014
H        -2.51433456542107    5.29216837027144   -0.96561501401720
H        -3.68912345333883    2.88727781188025   -2.37049590612927
H        -4.51479094442183    4.29528404027795   -1.71736764373171
H        -4.06941920952841    3.46314499999546    0.60120794220667
H        -5.05003872437977    2.36229820799732   -0.39389457352144
H         0.96633499231445   -2.78666717815666   -1.42295104913089
H         4.05888793884548   -5.98865792893258   -1.04754048677758
H         5.90275061764155   -5.81952198527400   -2.61019383216052
Cl       -0.10764823741853   -0.56717481003979   -1.72402534401593
