73
 energy: -111.079193600947 gnorm: 0.000824403083 xtb: 6.4.1 (afa7bdf)
Ir       -0.53120060632080   -0.51315247878005    1.62005603564648
C        -1.86439769694347    1.83747031309282    3.94212005895433
C        -0.78791768745253    0.94441124891052    3.43224799198226
C        -0.69325603210606   -0.44301358049875    3.84829878252413
C        -1.65775842652585   -1.11280990030799    4.76550155232885
C         0.61228812847355   -0.91988038458786    3.51898925293329
C         1.23560714307128   -2.16223313892362    4.05091406139445
C         1.25541339887511    0.09733233371854    2.73959674271557
C         2.68389527970842    0.09095694036594    2.31196849590025
C         0.39812528211201    1.27940436223289    2.73632263651847
C         0.90327234243690    2.63288202371761    2.31849660685644
C         0.01468611710601    3.39517926521334    1.33179376000385
C         0.69113797759302    4.70417269228544    0.93423212324648
C         0.95832241318464    5.56593588829863    2.16558480404918
C         1.82317346619225    4.80766361213719    3.16874763865637
C         1.15707368985769    3.49396517214323    3.56842815973126
H        -2.84219809310950    1.37277750665077    3.84801162419807
H        -1.88109893465309    2.79336637796591    3.43389357099853
H        -1.68094168745955    2.00749439472267    5.00436074971892
H        -1.54620745339162   -2.19250650564263    4.73454718811738
H        -1.46662460894863   -0.78048289094039    5.78650012552524
H        -2.68313779271786   -0.85446480305650    4.51612329912697
H         0.51599414106506   -2.97214365088194    4.13125525650832
H         2.06837437017148   -2.49068469926833    3.43683060955700
H         1.61361894767196   -1.94680482368867    5.05120724386793
H         3.08877816248712   -0.91629546401236    2.30763366425064
H         2.79575494732596    0.51424560329965    1.31640881428036
H         3.27026208967696    0.69416517088885    3.00546852025341
H         1.86535677154849    2.48285384208852    1.82022447243366
H        -0.95293011881710    3.61911337079476    1.78042095745476
H        -0.14928211798171    2.77660335302422    0.44911888972441
H         0.05839035322289    5.24894142472018    0.23074580218835
H         1.63551579190318    4.48988256949756    0.42880327282355
H         0.00911096474543    5.83718010639261    2.63401695228250
H         1.45778625640120    6.49073873973457    1.87026435596118
H         1.98503622501745    5.42050737103910    4.05789882007578
H         2.79984291928671    4.60518590665640    2.72294304373694
H         0.21270590112288    3.70825632352342    4.06771842534260
H         1.79498578143994    2.95183600315756    4.26894432964441
C         2.54886039309960   -7.36698850779099    2.57089939721682
O         1.45768432243421   -6.47813427576144    2.40096548335914
C         1.65962323375333   -5.30104023612143    1.78731877949649
C         2.88211142600793   -4.86247158932037    1.27837344469375
C         2.94205454712920   -3.61581220063634    0.67869726606368
F         4.12953851917656   -3.20283409248836    0.19017539954608
C         1.85515827116609   -2.77282075124738    0.57145549158561
C         0.63634990100780   -3.22612733351823    1.07601022234098
N        -0.49545238650566   -2.40166566011901    0.95485654686303
C        -1.56945963442119   -2.89530932659290    0.42386869895217
C        -2.67732001246494   -2.01562296652317    0.22635847777618
C        -3.81952766080243   -2.38062842799860   -0.48982662977696
C        -4.79967129084556   -1.43412306124561   -0.69410570375079
C        -4.59717192811642   -0.13002111939607   -0.23064124613275
C        -5.66558898232110    0.78061522045094   -0.37626677286041
N        -6.59030105685930    1.45114383131438   -0.48423045956662
C        -3.39028609735978    0.18989179243668    0.42879857117722
S        -2.93707032774004    1.77744157659854    0.95902650152948
C        -3.71882758748981    2.93134709101192   -0.20558113200213
N        -2.48872022083249   -0.76363460188789    0.70390724147043
C         0.53564563731887   -4.47549757059806    1.67111129912551
H         3.33836485797441   -6.91153398896750    3.17344136523553
H         2.14076750641527   -8.22740215653650    3.09666154167150
H         2.95320797638677   -7.68678095609548    1.60754838002186
H         3.77810210100252   -5.45762960881854    1.33022837273524
H         1.93202926655972   -1.81747177766169    0.08033615706039
H        -1.60366970550441   -3.91632462270192    0.06256136722687
H        -3.92333041247487   -3.38429295748930   -0.86588859798137
H        -5.71877039090993   -1.67782340059160   -1.20460238479295
H        -3.73580786743461    2.49563959998999   -1.19773161835118
H        -4.71566478279495    3.20098899478086    0.12328284975282
H        -3.07615133862173    3.80677975529465   -0.20149701834160
H        -0.39958045997636   -4.82468319514502    2.07717558029412
Cl        0.08742057878333    0.20106992845405   -0.55704756322561
