70
 energy: -106.928829165015 gnorm: 0.000386427691 xtb: 6.4.1 (afa7bdf)
Ir       -0.30715662747510   -1.56560349634393    0.91346357541767
C        -0.39895670879496    0.86069023478177    3.46444480504168
C         0.32640875542980   -0.14529454615470    2.64377791466485
C         0.44416544191322   -1.53758115027592    3.01688294411141
C        -0.12920577338970   -2.13003647778662    4.25827975578417
C         1.46015419785333   -2.13394359827113    2.19627817116127
C         2.12710710537141   -3.43750843181141    2.46360469109946
C         1.84362024436752   -1.16658056831706    1.21616287237146
C         2.96431296145292   -1.28035936502526    0.24297216168783
C         1.14449152169227    0.07525914155041    1.51110033381903
C         1.45956927294624    1.37464040772769    0.85284063058852
H         0.07616752202501    0.90901704068720    4.44469934104154
H        -1.43935291968070    0.58262898851365    3.61521860054823
H        -0.36540220291945    1.84503523143040    3.01081342610542
H        -1.10881401520199   -1.71304494176712    4.47430426791817
H        -0.21035331477970   -3.21040787901627    4.17838180489360
H         0.52722943034795   -1.90119623161744    5.09887295819001
H         1.43171178024333   -4.17241981861341    2.85946117203170
H         2.59350325687349   -3.84027638710044    1.56953456505783
H         2.90557713290612   -3.27291341949241    3.20967655045721
H         2.70724910873905   -0.79650515825532   -0.69631906832133
H         3.21906297821295   -2.31787667440725    0.04729437117375
H         3.84189775719716   -0.77735249785176    0.65031686522225
H         0.74523456128134    2.14191173151274    1.13414997896598
H         1.44897933992469    1.26596050252482   -0.22945021266950
H         2.45814746238413    1.69540970714316    1.15019147545752
C         7.26294691063073   -6.08537989117267   -4.06689236716619
O         6.05628356011842   -5.38146018537136   -4.27592466861442
C         5.08395542086180   -5.45366644157993   -3.33021087319969
C         5.18610720447572   -6.14489910559166   -2.12610485152370
C         4.11947374736708   -6.16426248515923   -1.24646685225374
C         2.93042136302647   -5.49820982755503   -1.53081492520648
C         1.79278366816176   -5.55416235555434   -0.60314994026610
C         1.52263970872764   -6.71567122217620    0.12563442781923
C         0.44435706816741   -6.77748899453809    0.99057064887952
C        -0.40101631289219   -5.69351121139882    1.13889270187754
C        -0.14122194041964   -4.52618880089745    0.41985990171397
N        -0.98728818049486   -3.41284430480299    0.53274095370853
C        -2.26999525414998   -3.58571347726936    0.42262254907232
C        -3.09150426521040   -2.42019485052164    0.45146353516863
C        -4.45615315417918   -2.42794103679197    0.14730864393396
C        -5.13267605959593   -1.23018811416804    0.10109978408745
C        -4.42029270977951   -0.04208402637952    0.30946741181341
C        -5.13188499369163    1.17755809718850    0.32225549115086
N        -5.74829919514458    2.14424616354425    0.35506615754106
C        -3.03892582199260   -0.10000572554472    0.56425215455718
S        -2.04925416990048    1.33712279339966    0.75523486877477
C        -2.44216277686329    2.29108046072682   -0.74075327453191
N        -2.41094250722737   -1.27132036906802    0.69313885083426
C         0.95495170994197   -4.45490354593985   -0.43521285563826
C         2.84403881100151   -4.79224496973075   -2.73320893376447
C         3.89816418234921   -4.77097168160907   -3.61773620799842
H         7.79721157940228   -5.70999667867713   -3.18901779439496
H         7.86267504381052   -5.90759721040356   -4.95760370378818
H         7.08362343552148   -7.15917012654966   -3.95863632246648
H         6.08925357887072   -6.67292556870099   -1.86488962162515
H         4.23054468897165   -6.69412674765505   -0.31236748378907
H         2.15175008123838   -7.58212719445678   -0.00260495493661
H         0.25515591161022   -7.68145918509640    1.54827656359398
H        -1.23563013391395   -5.73286640320597    1.82156066925267
H        -2.69729407251481   -4.56181491108911    0.22691336017659
H        -4.95553244014441   -3.36168687410411   -0.05020475012908
H        -6.19302966034390   -1.18771174595029   -0.09451687976802
H        -1.73013379670903    3.11053469477891   -0.74521131619492
H        -3.45280650394061    2.68156424790105   -0.70743617407530
H        -2.28166886300401    1.65685814302855   -1.60670036454750
H         1.12671548608983   -3.54150058559755   -0.98399641637625
H         1.93198330214353   -4.27672895115861   -2.99144750761962
H         3.82941235372789   -4.23698547423211   -4.55233408037166
Cl       -0.29998127348792   -1.05007366386583   -1.41170650532227
