80
 energy: -122.126165093904 gnorm: 0.001754448823 xtb: 6.4.1 (afa7bdf)
Ir        1.41913752825402   -0.09655745758237    1.83421095938912
C        -1.14977675478896    1.31253820569312    3.48085930690062
C         0.20437856187671    0.70275853877957    3.48286445663886
C         0.46933371540907   -0.69433676288778    3.77275012294558
C         1.87135929248111   -0.85797016188147    3.89180592986248
C         2.59866341079905   -2.05919952755817    4.37861901199068
C         2.49705711657161    0.43685902127666    3.66574816047003
C         1.46043528896610    1.41178509394467    3.46637427184436
C         1.63643433341828    2.86397970564948    3.39056314281820
C         2.41148182225213    3.51521585728129    4.35107895422460
C         2.57517509184468    4.88462250801824    4.30698926596847
C         1.98878288805208    5.64350021358058    3.29507050747164
C         2.19398272935949    7.09756102031541    3.22758905072642
C         2.45209612424839    7.71696544249351    2.00607294137926
C         2.65335273710056    9.08328272321587    1.93932336284592
C         2.59079224248147    9.85311155175940    3.08959761928615
C         2.33145615424836    9.24767629394822    4.30850755786402
C         2.13970326903878    7.87989416673878    4.37931464156941
C         1.21205791089555    4.98968665644561    2.33956399378750
C         1.03094835222884    3.62306385048711    2.38981098677730
C         3.95408098157098    0.69233700139779    3.78227298104925
C        -0.58142852539244   -1.70295981198279    4.08142984142774
H        -1.55691477475537    1.24463489458277    4.49121556512065
H        -1.83102239255596    0.77867000174868    2.82064353174388
H        -1.11134468638502    2.35905658476771    3.19424447152469
H         2.93137453587055   -1.87359827664074    5.40058717804663
H         3.48023072031022   -2.27059653320789    3.77790788275202
H         1.95181615651688   -2.93025044068161    4.37858709570911
H         2.86597865446881    2.94754434161552    5.14752537852118
H         3.18537114367194    5.37311839251029    5.05133800775501
H         2.51918464487947    7.12014759179835    1.10800404892804
H         2.86189911904368    9.55020591690235    0.98762068360729
H         2.74375360166555   10.92079781819743    3.03585959741944
H         2.27810740185860    9.84507380633080    5.20698421337584
H         1.92356312362396    7.41728126216073    5.33118528317479
H         0.73808079831634    5.56289993551959    1.55711236305359
H         0.45600324396023    3.13293528226864    1.61941888659542
H         4.52561688669080   -0.11235723237827    3.32372884489497
H         4.22387670007101    1.63964479451382    3.32268041558177
H         4.23004959129444    0.72433683761664    4.83745216620653
H        -1.47593969840790   -1.53075370072470    3.48951318180224
H        -0.22519598639469   -2.71108039950507    3.89228969831137
H        -0.85091899751189   -1.62422044790339    5.13553753204019
C        -4.66515775125292    4.00635510802269   -1.76340380296405
O        -3.60361512105897    3.32735530608021   -1.11392161597326
C        -3.43995649394559    2.01002483615006   -1.33507049460723
C        -4.21158798130068    1.21943553727585   -2.18630588004693
C        -3.90449665380718   -0.13336867478148   -2.28706515281007
N        -2.93435039069342   -0.72737658704992   -1.62841904736280
C        -2.18967448667261    0.02164587675959   -0.81018155232929
C        -1.12769754104794   -0.62681030265432   -0.06402803936559
N        -0.87150525045250   -1.85780454179201   -0.09349084545101
C         0.16516311893957   -2.45236496804254    0.54946007089031
C        -0.07094074231717   -3.61621913317463    1.26975983746766
C         0.97069651895880   -4.30656011851532    1.86700311062719
C         2.28708299636499   -3.89072126854351    1.72020129879452
O         3.37032270444548   -4.52639524501567    2.21781192445124
C         3.19438800052642   -5.76448518890664    2.88172338973032
C         2.56990921930748   -2.73691480956607    0.94426138106238
O         3.87585319601778   -2.51602646833127    0.73873124900228
C         4.29255140570286   -1.37943365302037    0.01549032281618
C         1.51133303286876   -1.94329081151088    0.42473590809335
C        -2.40245556386078    1.38492941470009   -0.63502191623276
H        -5.63234353918152    3.57773518967152   -1.48896690161162
H        -4.60877556955269    5.03439161923407   -1.41202785447000
H        -4.54377330101808    3.98359113568088   -2.84929364670490
H        -5.02747298841956    1.62604724319890   -2.75988326499830
H        -4.48352791914377   -0.77268095527929   -2.93971234788585
H        -0.52733173710767    0.04868986794205    0.60210482292673
H        -1.08210798033483   -3.97873876871677    1.35087334638607
H         0.74679587154383   -5.20507015350888    2.41846884187112
H         4.19808674484573   -6.09878354701585    3.13435664968523
H         2.61023247576799   -5.64439674858971    3.79771124845863
H         2.71726457717784   -6.50161302066786    2.23239032311240
H         3.91067321835692   -0.46294361549110    0.48586448518428
H         3.95754693501784   -1.41428255478633   -1.02387031763450
H         5.38007024849171   -1.38998916007931    0.04870776511288
H         1.72152854440414   -1.37234494903477   -0.48073952104255
H        -1.78628475657738    1.97462083179731    0.02416460463182
Cl        1.91653590751903    1.24528571084533    0.03120652532525
