81
 energy: -125.884220957490 gnorm: 0.000271444212 xtb: 6.4.1 (afa7bdf)
Ir       -0.42108052206479   -0.69166109960503    1.57646505349024
C        -1.49320122421817    0.97420049568418    4.35513381046881
C        -0.36943406481025    0.35405185449943    3.60255798125841
C         0.03156516141070   -1.01618972931137    3.73482052035244
C         1.25257521243739   -1.19551443449158    2.99470728994773
C         2.16689843250751   -2.36538091249094    3.12392800480937
C         1.55863990873737    0.04073258992097    2.34499201362442
C         0.55144477508896    1.00810189279293    2.72277658828442
C         0.66487275442866    2.45141417306286    2.48301029852059
C         0.57155758014687    3.34642576050386    3.54746393118521
C         0.71148195153866    4.70340563250775    3.33648394571515
C         0.94798346178547    5.21022774475211    2.05992866269323
C         1.09339965563984    6.65688084347730    1.84038339753937
C         2.06276678456238    7.14899193756087    0.96838326734125
C         2.20542518660680    8.50997404250746    0.76968530905026
C         1.37756888189642    9.40178356266786    1.43204089480148
C         0.40694221522096    8.92366716580515    2.29737563370520
C         0.26783935063640    7.56341514656523    2.50321360708368
C         1.04842312327935    4.31024088536570    0.99930490084454
C         0.91259752132999    2.95276082936742    1.20543773659003
C         2.80840676464919    0.35316637237563    1.59588789407422
C        -0.55196646231368   -2.00066991813698    4.69065567338609
H        -1.19996422279635    1.08603331530584    5.39993646603666
H        -2.37753174113863    0.34122595011282    4.33154509381190
H        -1.74289619890503    1.95114744336979    3.95337247189495
H         2.79522940159064   -2.21173545092499    4.00268652778352
H         2.81077040747088   -2.46857301475860    2.25658561486224
H         1.61569493816305   -3.29124859812142    3.26050048234037
H         0.42159452938195    2.97762018828006    4.54970901576098
H         0.65902105120228    5.38011552883758    4.17609847153973
H         2.72366555894415    6.46227727275687    0.45982881419523
H         2.96655972088191    8.87807204508005    0.09688516858720
H         1.48837516982173   10.46456665884768    1.27404085756688
H        -0.24383314834336    9.61499090531674    2.81324865480353
H        -0.50133064786334    7.19928079564375    3.16868667295019
H         1.21768125491758    4.68304195503601   -0.00015789769237
H         0.96357965067243    2.27312678728101    0.36897033688685
H         2.65755157896462    0.24439593406940    0.52216619010205
H         3.09811888542900    1.38540048286379    1.78231417032446
H         3.61319222568577   -0.30954725685244    1.90234880548360
H        -1.62068699513837   -1.84649155143438    4.81155071022323
H        -0.37434672229024   -3.02001017636630    4.35831821026978
H        -0.07988433193133   -1.87532235228593    5.66568392774216
C         2.49384586972958   -7.95258954138401    1.16830635851382
O         2.71687744727996   -6.66044364404226    0.63559337841339
C         1.77002875439669   -5.71879513465507    0.77607429134588
C         0.56046980022040   -5.88490722399746    1.44240534819248
C        -0.36033924591739   -4.85532698069067    1.51774036771906
C        -0.06314707784043   -3.61733703306107    0.95397862897094
N        -0.96134151378188   -2.55561516757049    0.99886814504443
C        -2.22227409604314   -2.76186768296061    0.75811270906039
C        -3.07986731182623   -1.62352283076567    0.71324787205954
C        -4.40698622983722   -1.67692782396982    0.27604134480402
C        -5.11824280137813   -0.50268572811371    0.17663750355235
C        -4.48426719069796    0.71056720257728    0.47296190980031
C        -5.27040006611929    1.88186054812620    0.45294413979679
N        -5.97380186660086    2.78846546114410    0.46141550781118
C        -3.12866866889466    0.70321449767866    0.86135631804459
S        -2.18244541078922    2.12950002760111    1.19216420748524
C        -2.77046434351417    3.37721052355350    0.01341507484249
N        -2.47340853859595   -0.45304006397351    1.02602556796616
C         1.16338312778267   -3.42224308437962    0.30347136525129
C         2.06833440444056   -4.45665664035974    0.18562794635771
O         3.25328754793355   -4.38054876745679   -0.45526931644693
C         3.59552281433582   -3.16796793404699   -1.09846191762186
H         2.38137232746370   -7.91909920447669    2.25522224911517
H         1.61559900238201   -8.42175169785130    0.71731814514272
H         3.38228652526659   -8.52668477555101    0.91367746940128
H         0.32370483545708   -6.82794386648802    1.90631165110961
H        -1.28474175351555   -5.00233470248311    2.05335270141648
H        -2.59759317144134   -3.74468717918176    0.50085913334160
H        -4.85186434996953   -2.62487187321780    0.02493675189233
H        -6.15465139969436   -0.49722443367762   -0.12407520942356
H        -1.92448994220025    4.04699266563973   -0.11548373328318
H        -3.00996954453641    2.90015963976680   -0.93074788302302
H        -3.62075582061472    3.92196483438007    0.40794844332714
H         1.34764439481328   -2.45973541391431   -0.14568175260453
H         2.86212735806542   -2.90320377108616   -1.86446854944731
H         4.56101611868289   -3.34972664585120   -1.56549217612319
H         3.68531939389661   -2.34862210399830   -0.38033417846740
Cl        0.02278980854761   -0.14614314882162   -0.69206499349069
