68
 energy: -127.626071279117 gnorm: 0.000403993841 xtb: 6.4.1 (afa7bdf)
Ir       -0.73044450466872   -1.03092644731888    1.56347954893268
C        -1.86220225116654    0.82175073633654    4.21113789004500
C        -0.72403616392245    0.16891383302006    3.50916694963802
C        -0.28419446090718   -1.17836736520061    3.75017374571778
C        -0.83949649072881   -2.08634388183243    4.79357895596570
C         0.95603807376395   -1.37171416676884    3.04408008531330
C         1.91258941346425   -2.49221202588971    3.25170614701093
C         1.22934743779857   -0.19324254419815    2.29468477145328
C         2.49750885661952    0.08251339189024    1.57081281854649
C         0.17946185182204    0.76921796712323    2.57759988815874
C         0.26579312119398    2.20127351065322    2.24516793245036
C         0.27012447096845    3.13605004346895    3.27908126331228
C         0.40770992337548    4.47643293703280    2.97174536889579
F         0.41604039971077    5.37230015732478    3.97886416216344
C         0.53670528576582    4.93442409967016    1.67250654565937
C         0.52527240436038    3.98175184399056    0.66835640967771
F         0.64306161113084    4.39152970503416   -0.61042478843583
C         0.39395068741144    2.63017627920313    0.92512389714645
H        -2.09670134682705    1.78864576131873    3.77710377095094
H        -1.59276451514718    0.96157038486575    5.25858749463466
H        -2.75204451997479    0.19735356971740    4.18510115696513
H        -0.60249507403560   -3.12500968251758    4.58194169469870
H        -0.39066055780695   -1.83199647107523    5.75464367969832
H        -1.91500163737237   -1.96848221162032    4.88650575065945
H         2.55290421991557   -2.23943353063379    4.09781066695825
H         1.40666889557586   -3.42550300912089    3.48037581587239
H         2.54914288914143   -2.63259060932821    2.38303675212903
H         2.77362220009449   -0.74673781336668    0.92292052524909
H         2.42226060704381    0.98462530273397    0.97191488991676
H         3.29776802892863    0.21371909577512    2.30023938758659
H         0.19721471006534    2.83317865737746    4.31033615269197
H         0.64408571586478    5.98344672548834    1.45284510953988
H         0.36897106532350    1.92856842270116    0.10527050170516
O        -1.27193201644475   -5.35898524691301    2.57759782211660
C        -0.22450188953796   -5.08956192448627    1.79368909710335
C         0.81565257011445   -6.02237313605896    1.76358111393052
C         1.94907029810055   -5.81113979996956    1.00911372947442
C         2.07196671717779   -4.63542834949397    0.27298032266371
C         3.29802724382251   -4.33850720012145   -0.53937723364313
F         3.85545466455286   -3.16128194332673   -0.17876937412554
F         3.03612536641282   -4.22863870134137   -1.85638583390809
F         4.25981842950970   -5.26189625980444   -0.41811960902163
C         1.06140755900454   -3.68856971557828    0.28948259156659
C        -0.09232370781195   -3.90993246070248    1.03293798480432
N        -1.09690466296668   -2.92441974077005    1.01647599367373
C        -2.30090236661492   -3.22715129438093    0.63175275101723
C        -3.25323669205008   -2.16391189321724    0.59500390080558
C        -4.58328149591135   -2.35063904009026    0.16791679562442
C        -5.42099560104566   -1.27438536262503    0.11059889223241
C        -4.91756378705438    0.00877493939004    0.42149434371775
C        -5.71670682608465    1.16165631674763    0.32061359557176
C        -5.18083503637554    2.39928577972189    0.57401851771035
Cl       -6.15282797891774    3.82150262472667    0.43980064320007
C        -3.82461063852741    2.52904833005692    0.92615980456576
C        -3.03770903550341    1.41952640586550    1.05788168447306
C        -3.55326545303520    0.12879295186535    0.82798866241907
N        -2.76673042250734   -0.96557922181601    0.96500648119587
H        -1.94946680849990   -4.66575338574808    2.57955833432193
H         0.70214826379862   -6.91955071430764    2.34981459874582
H         2.73811681772919   -6.54553856767689    0.99449719124877
H         1.14100725817367   -2.77969529875471   -0.28824151186698
H        -2.55737158616532   -4.22093559044463    0.28049050124535
H        -4.91421892058261   -3.34046097031827   -0.10088311854369
H        -6.45153372836146   -1.38123618869332   -0.18947951040244
H        -6.74877605558152    1.06039941064936    0.02559700313169
H        -3.41306905392391    3.51246573585885    1.08432134933568
H        -1.99204313285589    1.52607711182000    1.29196437594796
Cl       -0.28022463885283   -0.52473126591720   -0.71827983123033
