72
 energy: -115.524470325140 gnorm: 0.000265864747 xtb: 6.4.1 (afa7bdf)
Ir        0.60556632468481   -0.39222502176077    1.60877439488305
C        -0.73653446085619    0.97549591454595    4.35941713947859
C         0.48749561091143    0.60536207277440    3.59530614003755
C         1.23360619572337   -0.60299818368623    3.75009803364427
C         2.41106419359525   -0.51008893982206    2.92496924279001
C         3.58617379678746   -1.42652357134664    2.98270575361058
C         2.41773798230766    0.78462229236030    2.30511321246681
C         1.20819369429252    1.45897930363547    2.67406313611634
C         0.90981843042911    2.86110024844452    2.35285736958183
C         0.66288090287649    3.78722281676766    3.36526757258779
C         0.45815514832625    5.11804010209326    3.05899021302389
C         0.49014917736939    5.56476561884691    1.73843680160284
C         0.29955031579684    6.98645358917746    1.41560434563080
C         1.07619137879981    7.59544325254787    0.43141841648970
C         0.90210492730469    8.93210757169673    0.12379494997459
C        -0.05380332939572    9.68163773200140    0.79006432283751
C        -0.83074230734794    9.08674867401202    1.77078242912669
C        -0.65390501254889    7.75162992489766    2.08442973431823
C         0.72113955290074    4.63153029623189    0.72816400176817
C         0.92958698708646    3.30049220818992    1.02829734176097
C         3.54835534640086    1.35693254284776    1.52941633085730
C         0.94020198244034   -1.69842441255945    4.71473820629890
H        -0.45300461708032    1.25912658011112    5.37363589102224
H        -1.42489449014422    0.13686545567608    4.43317603200348
H        -1.24585852977255    1.81602884800367    3.89662407890927
H         4.23286704553905   -1.11575824375080    3.80463003662660
H         4.16113612144214   -1.38034046090818    2.06266627618486
H         3.28117517033716   -2.45365408002458    3.16039479742325
H         0.66924924554292    3.47114978799054    4.39652249275176
H         0.30013733782335    5.82813727560707    3.85654996032061
H         1.83643457630351    7.02404122909176   -0.08104970421007
H         1.51474381979404    9.39231078936621   -0.63797562453622
H        -0.19174931097937   10.72487020183569    0.54662693231827
H        -1.57879135359365    9.66666109653101    2.29164710981889
H        -1.27596073005704    7.29426658814426    2.83978613879889
H         0.72591903059403    4.95166971397763   -0.30275126686577
H         1.09905811813686    2.58739844452618    0.23424135247703
H         3.62963768517687    0.88200524984548    0.55226447181379
H         3.40703708736500    2.42373536953868    1.37893959464061
H         4.48059472773040    1.18545250470314    2.06465291501443
H        -0.11862945980291   -1.74183837392774    4.95173759652723
H         1.26208117877056   -2.66029021955609    4.32312577656836
H         1.48775315372738   -1.51116588125562    5.63897933289442
C        -0.94507890467669   -6.92631041112135    3.11106489353279
O         0.41098665653285   -6.85371730988710    2.70562158392006
C         0.86484547890866   -5.71851712642916    2.14663407334064
C         0.12467451773044   -4.55725482555982    1.95097416276774
C         0.71084088980382   -3.43301192759474    1.36326473765004
N        -0.04591076214999   -2.27220361706937    1.15093095973315
C        -1.21724378094987   -2.36065871515997    0.60162664727589
C        -1.94373382420553   -1.14524816792553    0.39694966339368
C        -3.18124343569316   -1.06506114269241   -0.24908554328530
C        -3.78029472218453    0.16621640954674   -0.41063318454424
C        -3.11395252376726    1.29006371386306    0.07778593330613
Br       -3.88471452660976    3.02000584872676   -0.08549769858714
C        -1.88160459459876    1.14889465711317    0.70240733183356
N        -1.31421155826768   -0.03807336332702    0.86409878134429
C         2.04177110233793   -3.45283447371827    0.96030643945303
C         2.78605706958500   -4.60705846339691    1.13326876854179
C         2.20524717363382   -5.71113355496093    1.71980676508976
F         2.94207455070063   -6.82657694297947    1.89425890893109
H        -1.16263682470321   -6.19680545829845    3.89451187403896
H        -1.61751445547368   -6.78284775293225    2.26175890925658
H        -1.07146421973220   -7.93155829645440    3.50685310854831
H        -0.90104788179325   -4.50336489079148    2.27696978093969
H        -1.61921954747974   -3.30926625653396    0.26570391279737
H        -3.65111322553422   -1.96178778405955   -0.62009209896840
H        -4.73518072275884    0.26589258069283   -0.90222760278979
H        -1.34910815672880    2.01532457394544    1.07000532736562
H         2.46270976875247   -2.58731132201334    0.47586818228765
H         3.81432508598478   -4.66313574777396    0.81519904580807
Cl        1.28330372855838   -0.22716114073793   -0.66345394246096
