62
 energy: -93.812264391855 gnorm: 0.000795539513 xtb: 6.4.1 (afa7bdf)
Ir       -0.48587458292730   -0.93481119914370    0.89338771049199
C        -2.08190653912705    1.24051865004704    3.03041684973277
C        -0.90094801122943    0.39991558297655    2.68675811115547
C        -0.71578854295912   -0.97113545852427    3.11582515916361
C        -1.65397389775695   -1.73627937589624    3.98363706042203
C         0.63851866818394   -1.34519116121355    2.82866721737668
C         1.32081971520321   -2.54924542132189    3.37685602655133
C         1.24468179759585   -0.27003863412021    2.10132252315292
C         2.68538049173500   -0.13139103748619    1.74479606357313
C         0.29511682652877    0.83269993712771    2.06836255739532
C         0.63241941178917    2.20929168970365    1.61599142411058
H        -1.94388434154670    1.63999806351726    4.03637998428227
H        -3.00173789774187    0.66058716278135    3.02888447759610
H        -2.18755778277025    2.08372509862506    2.35219186061642
H        -2.68937030482040   -1.49642088193539    3.75881800524453
H        -1.50737535570038   -2.80692694160611    3.87351950586214
H        -1.46677964929208   -1.47471873414233    5.02610276834377
H         0.67775725165912   -3.42542811616095    3.35450016655667
H         2.24660121681546   -2.75879486833671    2.85052199449702
H         1.56859724612208   -2.35066576804884    4.42065641186078
H         2.79785610448486    0.43931321380489    0.82652970511637
H         3.16109880997762   -1.09830054685513    1.61859428033294
H         3.20110698231110    0.40665804020755    2.54091176709778
H        -0.24719763414874    2.84412144582003    1.57352509986738
H         1.09429915812546    2.18955444652085    0.63125467178846
H         1.34641407913460    2.64782791630290    2.31296261540570
C         4.49647450774510   -2.89326208422647   -0.66087275681084
C         3.22965014035853   -3.56995135576161   -0.14364881886717
C         1.93852123219053   -3.04443062479762   -0.79263291095227
C         1.92084229439183   -3.39777225517493   -2.28489353406478
C         0.72715530985571   -2.85407363379137   -3.06412593320169
C         0.72010291646370   -3.63257760916574   -0.03849675392828
N        -0.41862685522532   -2.74961507474615   -0.02871344881756
C        -1.49641872195112   -3.11606307678959   -0.64117217408725
C        -2.59127030943170   -2.19393517399364   -0.68653264841755
C        -3.75120412186760   -2.37603204514721   -1.44555592222285
C        -4.70225802327806   -1.37821791251116   -1.46910410542990
C        -4.45433000217152   -0.21403332188989   -0.73441254581770
C        -5.45485931900274    0.90940390706583   -0.76259388127392
F        -5.52852123617407    1.48512067785669   -1.97466887548616
F        -6.69548877300547    0.48572345233547   -0.46991482891812
F        -5.16663329859488    1.88470093873594    0.10946396399271
C        -3.28677880349135   -0.10005906311075    0.00153422832605
N        -2.38424998095549   -1.07128493478622    0.04288603593267
H         5.34287137907406   -3.16504291875092   -0.03440774121544
H         4.38962695650330   -1.81135545634789   -0.64473868398125
H         4.72806325579798   -3.19952882282223   -1.67685005588100
H         3.17779783147446   -3.41025204420627    0.93447866261066
H         3.30265721689685   -4.64638458206769   -0.31028856607863
H         1.90497937997846   -1.95438586964694   -0.69147253517281
H         1.97244911756682   -4.48306759604788   -2.40092303009120
H         2.82406824210096   -2.97911291636133   -2.72828129566433
H         0.93550910321976   -2.89670690579053   -4.13095354232694
H         0.53819999911632   -1.81780039413035   -2.79790708664102
H        -0.17388734462771   -3.43139132089906   -2.88219030773844
H         0.44911935318842   -4.59462720923263   -0.48264845856586
H         1.00930311269609   -3.79892308744348    1.00124338469188
H        -1.57788435652154   -4.07943998164700   -1.13231659655423
H        -3.88443626333000   -3.28192636899295   -2.01414796961860
H        -5.61189430344552   -1.47937411903611   -2.04046010597983
H        -3.07873544528459    0.79458265587535    0.56973105719011
Cl        0.03491059012504    0.18543702475058   -1.14109823650508
