67
 energy: -108.113240198924 gnorm: 0.000868192561 xtb: 6.4.1 (afa7bdf)
Ir       -0.47750932465476   -0.92429949755110    1.37010799626129
C        -1.96893953196470    1.06554940690389    3.74049448762137
C        -0.75337596788352    0.39571636794361    3.19971664554143
C        -0.36632684120676   -0.93799931403879    3.59816963762791
C        -1.08600634109124   -1.77106824270333    4.60122792049491
C         0.96070864467275   -1.18521162539711    3.10581607327547
C         1.82298251402004   -2.32896420627598    3.51017536017904
C         1.34159650651267   -0.06643749564317    2.30782468897762
C         2.68679815945060    0.16810391926581    1.71123487777317
C         0.27369450685040    0.92834526139047    2.37178778860786
C         0.44818411898239    2.33821271196861    1.87553324002584
C        -0.68067901935264    2.85730442929357    0.97792441997679
C        -0.33298826845226    4.25450197404312    0.47034424678848
C        -0.11367486148581    5.21049210361415    1.64051640805164
C         0.98996062850722    4.68971018471939    2.55746200572336
C         0.65362523593377    3.29050678009784    3.06557971962501
H        -2.83806779794810    0.41317199411629    3.68540879648478
H        -2.19060303108191    1.99523805413212    3.22947838208267
H        -1.79526311233300    1.28824013988513    4.79417006015864
H        -0.82489670143704   -2.82047294962155    4.50070556519832
H        -0.79919523868143   -1.44619142726887    5.60202318837751
H        -2.16268430250419   -1.66155513140164    4.50921878014672
H         1.24341419139616   -3.23824604485581    3.64381112404524
H         2.60601572592274   -2.51763121058982    2.78258410164584
H         2.29376064187696   -2.08420283222376    4.46299851405462
H         3.27987188280635   -0.74093059712247    1.71434524295413
H         2.60028809119043    0.52760883406373    0.68798247161288
H         3.21204337246626    0.92481346945274    2.29396827864206
H         1.36019351404717    2.36035425450426    1.27177432659161
H        -1.62138517358378    2.91771114160676    1.52575257931105
H        -0.81134614246430    2.17879893384896    0.13349524271424
H        -1.13979066589785    4.62458896986963   -0.16540932001276
H         0.57324226558932    4.20939540139317   -0.13759945285233
H        -1.04230097065525    5.31152792195793    2.20742863836024
H         0.15282201971620    6.20022292430176    1.26474362955816
H         1.11848816997804    5.36497564612560    3.40563535889373
H         1.93327922977850    4.66404008854547    2.00721960977763
H        -0.25384813469120    3.33476324936126    3.66793149007378
H         1.46209605371245    2.92170617438790    3.69916537957079
F        -5.09221573939170    2.04021096486656    0.74066468341055
C        -5.44594015056394    1.05901790266799   -0.09896915436457
F        -6.69331935133831    0.69375187224929    0.23671238566041
F        -5.52822902063695    1.60826135439983   -1.32247278299489
C        -4.49186474654615   -0.10602929295826   -0.07007734629225
C        -4.82893107661999   -1.28996103041844   -0.73502264149270
C        -3.92707845576290   -2.33191002102676   -0.70480134641013
C        -2.72287761952601   -2.17279534382122   -0.01070517101950
C        -1.68626810714275   -3.15434679036352    0.05123586316213
N        -0.58293574513917   -2.80509683860269    0.64293971317517
C         0.48143524859892   -3.71229724242010    0.71380063498958
C         0.27892614084764   -5.02082673264210    1.15793160485134
C         1.33968705478812   -5.90343722716913    1.21696700700786
C         2.59965927091890   -5.48663668457480    0.80850746169516
Br        4.06879840984162   -6.72025994979187    0.86654759489031
C         2.81269675229494   -4.18900909523904    0.36140935323376
C         1.75734895527000   -3.29916050698657    0.32682183627824
N        -2.41915572245193   -1.01847089715295    0.63919246399942
C        -3.28146118369335   -0.00938776209183    0.59638850026002
H        -5.76967746806065   -1.37448725564631   -1.25683243479718
H        -4.13136652465923   -3.25857669959253   -1.21612751213143
H        -1.79877299847201   -4.12301235432901   -0.42062364240688
H        -0.70042451145982   -5.33370880307712    1.48454427899091
H         1.19077800629395   -6.90977135982796    1.57364531272396
H         3.79485775881539   -3.88250377773087    0.04045924484122
H         1.89478426463742   -2.29420634918374   -0.04168021552852
H        -3.00149670428760    0.90100551555735    1.10576205697108
Cl        0.07660821739546   -0.24645835719903   -0.84804025262435
