69
 energy: -113.994411655960 gnorm: 0.000362506342 xtb: 6.4.1 (afa7bdf)
Ir       -0.09539750682469   -0.87023430287473    2.15339410123822
C        -2.32422075916579    0.57184182829617    4.27337931928490
C        -0.91665680458249    0.18413161371952    3.98798351674750
C        -0.30000899035169   -1.04479163933019    4.38978615905751
C        -0.94476556192206   -2.09083011556560    5.23135203924074
C         1.10231561749489   -0.96851343120822    4.05697062622097
C         2.16561681437759   -1.89752100181564    4.54008319721374
C         1.33909024880596    0.29051502584398    3.42306247028691
C         2.66931669770611    0.86767441476372    3.10263399623786
C         0.07532305120054    0.99236047104026    3.34291198061797
C        -0.07338926353801    2.41173388743344    2.97687066223793
C        -0.54840727223307    3.31127195845278    3.92952965871187
C        -0.64624042231637    4.64961152618644    3.59836744164313
F        -1.10264407454893    5.51330681780065    4.52766591031772
C        -0.29304891161245    5.13808217051062    2.35306659840781
C         0.17087976756725    4.21852164622371    1.42886287693267
F         0.52007954994898    4.65472375385648    0.20200142612346
C         0.28611504781697    2.87089287975716    1.71252068642921
H        -2.60487522174271    1.47140625155827    3.73229328184983
H        -2.42866436126370    0.76648516376931    5.34130058106626
H        -3.01596897687289   -0.22870167385216    4.02041003057531
H        -0.52646721454437   -3.07469991116416    5.03957445704327
H        -0.77439758237315   -1.85095403552958    6.28181845889280
H        -2.01684525524333   -2.12343522607396    5.06247058984547
H         2.66667063377909   -1.43934533026341    5.39326020079131
H         1.74602726696026   -2.84416676574658    4.86545620804698
H         2.91492511457931   -2.07860737853894    3.77409368647506
H         3.42572882513112    0.09249937001184    3.02903180677670
H         2.64488726459018    1.42945223463478    2.17331786801442
H         2.95190522957911    1.55453806710040    3.90155929325779
H        -0.81651026910450    2.98878829217388    4.92221687279650
H        -0.37530281931923    6.18520014969152    2.11456154084019
H         0.63587924341099    2.19146474227937    0.95086638561925
C         7.00334199719591   -4.80518496916684    0.44812667216618
C         5.67361625151204   -5.14259658945323    1.11380292812415
C         4.58064158998982   -4.14394610170926    0.73588429184892
C         3.25280024786385   -4.46484463428326    1.42107180419976
C         2.17655282233702   -3.44958668097652    1.04550468469011
C         0.84393285879818   -3.76555390871999    1.74568520318529
N        -0.13355443194309   -2.75833534635501    1.42491857963421
C        -1.00767633188490   -3.00200114527109    0.50597624602936
C        -1.91918281635110   -1.94750381785616    0.16579933550943
C        -2.88542498719670   -2.01872666658085   -0.83998731902593
C        -3.68808460611241   -0.92182840797487   -1.08002241771361
C        -3.48989222794481    0.22348200228383   -0.30406399324736
C        -4.32383197875756    1.45493615017805   -0.54387867269341
F        -3.84353695437777    2.19569731117535   -1.55809322846626
F        -4.36800733644628    2.25833916065432    0.52831491901177
F        -5.59098287003611    1.15537925090074   -0.85806466332471
C        -2.50697341609799    0.23384003454972    0.67329697383384
N        -1.74911693329371   -0.82852677533773    0.91461973844882
H         7.76696377983490   -5.52668608038234    0.73072544653441
H         7.34240439914103   -3.81524517705135    0.74665824012629
H         6.90518764106900   -4.81954262129707   -0.63549958057571
H         5.80576123723993   -5.14439962237339    2.19801359089474
H         5.36705351723337   -6.14794569627192    0.81616342753203
H         4.90378781949872   -3.13871553297857    1.01446831182962
H         4.44519929016208   -4.15513488745124   -0.34755086191277
H         2.93290696498787   -5.46604393948047    1.12688045782246
H         3.40055121908901   -4.46850024482978    2.50243199101933
H         2.49768479840079   -2.44359522947294    1.31941615678731
H         2.02119724193155   -3.45878793488954   -0.03397887030505
H         0.49235477329718   -4.75038029338347    1.42568275198442
H         1.00174888084427   -3.77252537172049    2.82456345411928
H        -1.05622365927300   -3.95916688240395   -0.00143267060555
H        -2.99085061215738   -2.91992924222948   -1.42239849946268
H        -4.45101176801305   -0.93987693385772   -1.84307935174991
H        -2.33237691998496    1.11653130573154    1.27180140262734
Cl        1.03157641401272   -0.24838193473149    0.15190359228655
