55
 energy: -88.264949234604 gnorm: 0.000712455555 xtb: 6.4.1 (afa7bdf)
Ir       -0.71989602619920   -0.89954275727566    1.46948650860102
C        -1.92943615391300    1.26774547856814    3.99092445744637
C        -0.84812853076787    0.48486293128424    3.33618548907698
C        -0.52291723798486   -0.87770052251796    3.69276019279018
C        -1.22715236662451   -1.66989412455777    4.74123462089569
C         0.76139438824130   -1.18896963301301    3.13135406244376
C         1.60442182428453   -2.35452044726077    3.51462702464013
C         1.14780093449407   -0.09020336577079    2.30008223019006
C         2.46742350371589    0.10674996562250    1.63835334247144
C         0.14551927088199    0.95442554803959    2.44244279500221
C         0.30966196227620    2.33812252462455    1.91602050764498
H        -1.66777392005037    1.38939176012678    5.04256143670808
H        -2.88539156055058    0.75176574730228    3.94719944649151
H        -2.03943951430054    2.25071987210735    3.54619014145720
H        -2.29314969879311   -1.46122576917144    4.73899198178785
H        -1.07236854158022   -2.73591491588741    4.60050978365779
H        -0.83180916402122   -1.39790655280120    5.72065094324077
H         1.00265554394276   -3.23616841430524    3.71697239806694
H         2.33376516965244   -2.59420759583205    2.74688312806296
H         2.14415856704732   -2.09793809915775    4.42704666402405
H         2.34039699722052    0.53954232706607    0.64856258792573
H         3.01059334311129   -0.82902368102619    1.54924910115246
H         3.06241723688104    0.80053329268323    2.23281413817784
H        -0.62613240918009    2.88803069330033    1.94397954797873
H         0.66742555366745    2.31658877953649    0.88914033926098
H         1.04690282049387    2.86698866336318    2.52062672632398
C        -7.02026123505056    0.48329552937555   -0.65837688479089
O        -5.70665527587670    0.63837726586977   -0.14021474738824
C        -4.92774620378136   -0.42650250174140    0.01162933230613
C        -5.25139452573020   -1.75152319391051   -0.29600665615295
C        -4.29492244838990   -2.72763496842861   -0.11028535514491
C        -3.04551250179094   -2.39035558713415    0.41047173038202
C        -1.95000329146486   -3.30125503350110    0.48930856029020
N        -0.79803237598031   -2.83244494968582    0.85254208175989
C         0.32668928086117   -3.66792736938676    0.83270104224889
C         0.28850317506322   -4.94558042210657    1.39287412254133
C         1.40812775892304   -5.75404917704728    1.35066833941376
C         2.56173630596923   -5.29176698342011    0.73420765239566
Br        4.11264255569623   -6.42276501609970    0.66338020007042
C         2.61274351568136   -4.02347188097799    0.17196856277268
C         1.49876041928593   -3.20925242905748    0.23130643782609
N        -2.74578922888719   -1.11368235970693    0.77764469822599
C        -3.64410788001265   -0.17587594492076    0.54270638033955
Br       -3.22667476042443    1.61855990223951    0.88385599029626
H        -7.62712204417947   -0.14335528452500   -0.00172228590660
H        -7.43399474214724    1.48861522365780   -0.69088921126392
H        -6.99637522452872    0.06327920785542   -1.66619787922145
H        -6.21952522993956   -2.00552853419281   -0.69552018254322
H        -4.49881737952586   -3.75174248556265   -0.37719569146184
H        -2.06920955842142   -4.32758426679606    0.16118092017825
H        -0.60764858280571   -5.29507881377739    1.88231505696331
H         1.38692346808432   -6.73780739919972    1.79115202467386
H         3.51462218803250   -3.67783404158503   -0.30742795255511
H         1.51011601343300   -2.22683340826799   -0.21477108606308
Cl       -0.32494918403328   -0.23053678301226   -0.79319679570811
