66
 energy: -112.093801596175 gnorm: 0.000722664810 xtb: 6.4.1 (afa7bdf)
Ir       -0.25907028695772   -1.16218104324716    1.66108896953284
C        -2.04402014085996    0.04568134863048    4.27620567542986
C        -0.71683665368676   -0.23670250287843    3.66330003841465
C         0.05501963838424   -1.41481375229396    3.90741996330755
C        -0.33074700507503   -2.47389696031053    4.88230482638439
C         1.32691950369680   -1.25893613535035    3.24944519369872
C         2.52166543088032   -2.13955614726754    3.40368966219222
C         1.36262785201997    0.04558707492468    2.65896146478184
C         2.56899905077183    0.69399040607696    2.08339893947241
C         0.07868633868200    0.66130895557891    2.86443828966894
C        -0.23134333205098    2.06194485991143    2.54410759602913
C        -0.66531825122116    2.92846990404079    3.54564170622025
C        -0.89918048565200    4.25414686564806    3.23111376736387
F        -1.31192852633722    5.08604853468682    4.20829350609760
C        -0.72454539676710    4.76126094012338    1.95562838546463
C        -0.29674617553665    3.87487921309247    0.98216749368762
F        -0.11955760278331    4.33084517706598   -0.27395479107995
C        -0.04704661467911    2.54229943167380    1.24773096027204
H        -2.54341428580385    0.87430168220561    3.78292864146574
H        -1.90337656679977    0.30556255835754    5.32631667337430
H        -2.68444937502071   -0.83221021788195    4.24116206898643
H         0.43035296888200   -3.24437980437323    4.94753840398368
H        -0.43869961761997   -2.01600865691010    5.86625078862321
H        -1.28730550777415   -2.92568201599029    4.62825747712747
H         3.07294881884247   -1.84190111008338    4.29687415281364
H         2.23566420668028   -3.18229419035129    3.50276210418779
H         3.18019998147578   -2.04098166583645    2.54507002514908
H         2.84083071405191    0.24011300226542    1.13049053775557
H         2.39281285626604    1.75381161647803    1.91716019682416
H         3.40845483458643    0.56772484105633    2.76579056182021
H        -0.79330515594817    2.59447957302886    4.56174230425598
H        -0.91267259042223    5.79759984891499    1.73013764539556
H         0.27293797193490    1.88610690777837    0.45309934169545
C         3.48099968901362   -7.80387973954421    2.17672950061984
O         3.13097116393916   -7.13524372682190    0.97908755733584
C         2.22431767906385   -6.14491932407298    1.02203718581221
C         1.54947839430250   -5.71757600158191    2.15939079202714
C         0.64924275115146   -4.66811266083962    2.10118501792546
C         0.38074959538587   -4.04732868251204    0.88741087634444
N        -0.55017176761361   -3.01063893824048    0.81577508963796
C        -1.48232911130170   -3.05432692183699   -0.09045206280634
C        -2.34528007290000   -1.92364065495418   -0.20807062187635
C        -3.40864606348909   -1.82571128319894   -1.11271560156847
C        -4.16529944523543   -0.67527562269473   -1.14695478508347
C        -3.82827127167680    0.35773810266404   -0.27075317818345
Br       -4.83201049999003    1.97476737912097   -0.24156370594692
C        -2.75942721378233    0.20752618236582    0.59935152126721
N        -2.03854585801504   -0.90677150806446    0.63918760379272
C         1.02998513159893   -4.48510610937680   -0.27707067540950
C         1.96043528232877   -5.50285546987540   -0.22209666849520
O         2.66947877869549   -5.97006821338587   -1.27170126087912
C         2.48279936189458   -5.37416320501534   -2.54011860027941
H         3.91263339024385   -7.11176686459653    2.90436803741993
H         4.22883005505802   -8.53978183059214    1.88835642753599
H         2.61836834155980   -8.31453320364627    2.61287515993474
H         1.72023258291873   -6.20834269633178    3.10318606496723
H         0.10290726568841   -4.37238865513087    2.97990388516610
H        -1.60641024080967   -3.91884057568461   -0.73122804366572
H        -3.62071282776270   -2.64756390458813   -1.77750837996212
H        -4.99220255797870   -0.56556896126980   -1.83037961275460
H        -2.48497736209405    1.00913058000054    1.26906040945578
H         0.83233321509471   -3.96581784097179   -1.20028998324699
H         3.17172915439030   -5.89027755111328   -3.20550101626865
H         2.72693370825313   -4.30869743825644   -2.51875586944721
H         1.45899685018565   -5.51340520860939   -2.89753679743030
Cl        0.73193130572858   -0.68996799003046   -0.44707983635162
