63
 energy: -88.746239320684 gnorm: 0.000657593283 xtb: 6.4.1 (afa7bdf)
Ir       -0.77370370325856   -1.45716581634801    1.34559746590224
C        -1.70350274134247    2.42975378558133    2.45571190648326
C        -0.59629784245773    1.46139316680363    2.32521697638215
C        -0.57329848270030    0.11282693687115    2.82843410506158
C        -1.30839050676136   -0.24865829444092    4.10473964893137
C         0.74156868855140   -0.43638057356370    2.46915095565483
C         1.56337258538931   -1.22357257240366    3.46644807753467
C         1.41632512211579    0.61549378754863    1.69290610466279
C         2.72846203489280    0.46294007535094    1.02831691358763
C         0.61271632818234    1.74304958260876    1.65721039599999
C         0.91362454855498    3.01876899031993    0.94902431224538
H        -1.36857691694588    3.29639066662726    3.02663235271831
H        -2.56948324507884    2.00038130763667    2.94861365235633
H        -1.98772954157932    2.79269568998436    1.46792949375573
H        -2.32147327282258    0.14368430062356    4.09851771994430
H        -1.35878963471746   -1.32402089838309    4.26570928122087
H        -0.78675670376089    0.19116178933654    4.95556434356618
H         0.98866659053456   -2.00012443415221    3.96264983300638
H         2.43614256046666   -1.67117755678796    2.99963307050133
H         1.91846194774797   -0.53257577757371    4.23245533150172
H         2.65031409111090    0.74376980378017   -0.02109026747874
H         3.09441158358736   -0.55590460296429    1.09531763178109
H         3.45703910023315    1.13055769161124    1.48985839133420
H         0.58518379149528    3.87248946173621    1.53739624922461
H         0.39207669357743    3.04542883438021   -0.00752507259735
H         1.97844317673811    3.11216450621947    0.75930289173611
C        -0.64676803817437   -4.17689108197850    2.62735707669761
C         0.72010765140064   -4.69561844883606    2.18675610669973
C         1.35368038155448   -3.94680694305685    1.00673191176417
C         2.68056884968475   -4.59900095166768    0.58691439136151
C         3.76843019920699   -4.52584199472036    1.65415156736984
C         0.43228380975756   -3.87029870819415   -0.21605807433823
N        -0.72347712542628   -3.04380994229047    0.01659800080807
C        -1.78920050478963   -3.24142906428732   -0.66510271627878
C        -2.96165384187902   -2.46324562437518   -0.36006611387839
C        -4.11966797526422   -2.47195390198944   -1.14092945916236
C        -5.18135445588461   -1.68880929099373   -0.74996225892073
Br       -6.79414254453697   -1.62433241842008   -1.76322355949043
C        -5.09501615082093   -0.91268542423508    0.42377019205937
O        -6.15963361931662   -0.18560329264734    0.75342320410963
C        -6.11844316886263    0.63291397774053    1.91249528350343
C        -3.89825884787586   -0.98629271058441    1.14319252531845
N        -2.87465190352666   -1.73228435503197    0.76237786761676
H        -0.85306199908010   -4.47885519315757    3.65195727766450
H        -0.68302486485548   -3.06186821806601    2.59981116818800
H        -1.44408298129709   -4.56315500953021    1.99785724213370
H         0.62528831754635   -5.75294306625208    1.93076105364529
H         1.40865375191702   -4.62345007827416    3.02858188880485
H         1.56075168257217   -2.91435715470884    1.31394063502723
H         2.50309099971359   -5.64457525717854    0.32669601935998
H         3.04780117700291   -4.09614480272178   -0.31011597189184
H         4.70324266156365   -4.90759147259593    1.25120473308831
H         3.51621723804311   -5.12124870419433    2.52678586295986
H         3.93278125277744   -3.49784606593375    1.96802749472620
H         0.99621919618082   -3.41071946128979   -1.03593881572562
H         0.12944738233944   -4.87326343237605   -0.53459763165846
H        -1.84631486236001   -3.99913239147082   -1.44191749992962
H        -4.17218849303470   -3.06562130848457   -2.03857163853099
H        -5.99023374830951    0.02828263433426    2.81274913915978
H        -5.32279449953573    1.37651458029057    1.83449823963359
H        -7.08377017511294    1.13333392571054    1.94444531240520
H        -3.76297804771914   -0.43026750335416    2.05710688341231
Cl       -0.64509595534407   -0.07889869560623   -0.51399410267191
