67
 energy: -112.330574406878 gnorm: 0.000343020674 xtb: 6.4.1 (afa7bdf)
Ir       -0.65418070541147   -0.82773262514962    1.50233308160842
C        -1.88490984298103    1.54465283878769    3.86671164656109
C        -0.83889264321958    0.64381903979946    3.31585820273361
C        -0.72874396574734   -0.74263488686998    3.73832821304781
C        -1.65732369542679   -1.40544570796477    4.69529494406902
C         0.55496258030487   -1.22845612143384    3.34985540233072
C         1.19721241661182   -2.47245412369382    3.85232287970470
C         1.16857919715494   -0.21427561055744    2.53320525940005
C         2.57771900188118   -0.23212096840777    2.05019960942871
C         0.31814806600943    0.97319299901934    2.56729974446215
C         0.79948707352293    2.32258055683193    2.11427782134949
C        -0.13677472469193    3.07205572514709    1.16160933395708
C         0.52104479163837    4.37380977346098    0.71342885132945
C         0.84540630516268    5.25191295577639    1.91915522679170
C         1.75230357371666    4.50672720455796    2.89489043772494
C         1.10369584498716    3.19966768144038    3.34247804054405
H        -2.86186394392398    1.06899489478832    3.86582876523138
H        -1.95111039376308    2.48141781093529    3.32719358956573
H        -1.62504090522920    1.75587784438098    4.90545578212322
H        -1.55054497952258   -2.48558360719678    4.66534553784736
H        -1.42184835242595   -1.06911260416299    5.70566236988514
H        -2.69153207143662   -1.14363068813373    4.48947560214748
H         0.47734555382075   -3.27613823685847    3.97945715021197
H         1.99660838117370   -2.80970005301483    3.19967674484819
H         1.62902436747429   -2.25311047024866    4.82990139331724
H         2.96574783186419   -1.24511011218867    2.00494981044243
H         2.65875053131237    0.21926770739329    1.06464928656177
H         3.19671320357423    0.34345601090898    2.73893462022959
H         1.73952397517036    2.17147733400183    1.57585957021291
H        -1.08252676220453    3.30696794448408    1.64804105425690
H        -0.34573856779942    2.44454112353418    0.29546565454942
H        -0.14816957440753    4.90661146373505    0.03543114635625
H         1.44019208675332    4.15309299385326    0.16554879294422
H        -0.08212279586787    5.53179791062878    2.42405694338739
H         1.33323848320447    6.17089607894433    1.58862164399403
H         1.95153150633066    5.13177090260159    3.76765206290947
H         2.70926133027645    4.29742434356357    2.41145444133546
H         0.18025050613924    3.42285039772399    3.87527264826943
H         1.77059895869815    2.66826437541369    4.02370521818743
F        -4.12493770751708   -4.13943115904445   -0.72649880268517
C        -4.02721048608268   -2.86931745819580   -0.32860678758340
C        -5.08106509807501   -1.99278709324840   -0.50882542091211
C        -4.88718763227734   -0.67654381711750   -0.12061148965378
C        -3.67511367010291   -0.31105883685184    0.45489629891176
Br       -3.40861917220372    1.48729097392092    0.89449459867172
N        -2.68434811822401   -1.16449035685435    0.69404268899447
C        -2.83185529211045   -2.44157951099390    0.26402596354793
C        -1.67017251712528   -3.26507217425773    0.36553084973194
N        -0.58083193338580   -2.72071716179562    0.80875317555701
C         0.59621917081131   -3.48713954281013    0.80862535654642
C         0.62097973037242   -4.75630072173390    1.38702130056422
C         1.78064593792674   -5.50788551649309    1.35135947881293
C         2.91240540362102   -4.99509342905407    0.72852023449227
C         4.16513650041876   -5.82197439781239    0.63740444330079
F         5.28085359601344   -5.08484216655657    0.77193902115510
F         4.23008354851840   -6.78467785181185    1.56960455823636
F         4.27100994397472   -6.44543788934492   -0.55505141283361
C         2.89235567640497   -3.73109393372113    0.14668779006455
C         1.73824306584282   -2.97321860609576    0.19572492873292
H        -6.00520443379154   -2.32604635920032   -0.95400808149253
H        -5.65927737183543    0.06386954581634   -0.25818192698332
H        -1.69502541370564   -4.28521802293550   -0.00184844221158
H        -0.25792937472522   -5.14645812019429    1.87573859439593
H         1.80793044963370   -6.48733845532121    1.80255494655538
H         3.77583102504025   -3.34589178946930   -0.33840651480418
H         1.69601097948521   -1.99982878267427   -0.26693683126632
Cl       -0.21623644960934   -0.09328946198959   -0.71496704169804
