70
 energy: -108.412047411868 gnorm: 0.000477492445 xtb: 6.4.1 (afa7bdf)
Ir       -0.87127648604430   -1.22701988236620    1.16280511547158
C        -2.16751869443187    0.94530001414226    3.53199992797166
C        -1.03911958134044    0.13139099007030    2.99858685198202
C        -0.78130602486322   -1.23493171980922    3.38306922001022
C        -1.58274523642728   -2.00472538378605    4.37713364220275
C         0.53196551268478   -1.58995653710303    2.90782367994519
C         1.30029294053800   -2.79451711321517    3.32582309121065
C         1.01356851374995   -0.51243820249039    2.11753924595454
C         2.37154902886011   -0.37390252933710    1.52107483067336
C         0.03807935727783    0.56492236235600    2.17978293062427
C         0.30616749423649    1.94348117399764    1.67494507316941
H        -1.97538069443837    1.15214002934138    4.58538285627127
H        -3.11004459746720    0.40777132138091    3.46525010174481
H        -2.26536545987008    1.89055654953197    3.00878618912365
H        -2.64313048152316   -1.78979704921980    4.27635875813710
H        -1.42551373043050   -3.07382398010431    4.26559499932527
H        -1.27384355243431   -1.72153289395343    5.38411862454717
H         0.64723239504063   -3.63949332357515    3.52535973968013
H         2.03195181566645   -3.08708309238911    2.57766078212500
H         1.83614887415002   -2.55822948546930    4.24631315466158
H         2.31025481336390    0.06661841175213    0.52834436703161
H         2.87172588499827   -1.33531368150815    1.45049228981091
H         2.97482135670826    0.28544563600972    2.14565409385816
H        -0.54628101650855    2.59931646493732    1.82494907677342
H         0.55746211003076    1.92349075169660    0.61575604937036
H         1.15975349655795    2.35909636174271    2.21047493780610
C        -7.14082358884583    5.15323869286413   -0.32827904792397
C        -5.90668926375804    4.29033025602809   -0.11779326408449
O        -6.29899696807341    2.92944781704329   -0.27442909437059
C        -5.41001222654759    1.94421161371068   -0.10943314459806
C        -4.04380020859576    2.13722257223308    0.20743456086247
C        -3.21113753176212    1.06965579982507    0.39181789555720
C        -3.67270371578227   -0.25343139041155    0.25632677403135
N        -2.83780944829904   -1.29903314553300    0.45079105159409
C        -3.25808006887300   -2.53697426981931    0.13437755690280
C        -2.24345344703000   -3.53733394365454    0.19517084075998
N        -1.06049050818788   -3.15118198246511    0.56224779605492
C         0.00604553773695   -4.05699463459159    0.59368624058803
C         1.22059164761305   -3.69533700971007    0.00818788704097
C         2.28272514428475   -4.58050147467038    0.03531482075471
C         2.13600131397788   -5.80365352863091    0.66410809240974
S         3.51752725961350   -6.95737694581558    0.70241729249891
C         3.13019327840556   -8.14774114227868   -0.60543709483295
O         4.72248932117396   -6.24265533138690    0.35239844043275
O         3.50291003938135   -7.63927290570480    1.97597049723449
C         0.94259755510927   -6.16705568991624    1.26123836672751
C        -0.13179575492386   -5.29737521771348    1.22160143034993
C        -4.58289885045718   -2.80554637585538   -0.27359561453746
C        -5.47463899071066   -1.77931578132685   -0.36764044193313
C        -5.03516630381613   -0.45406109228107   -0.13138454757221
C        -5.87634757855656    0.64925824122518   -0.28409517450393
H        -7.90301852301508    4.90355674514583    0.40465706490742
H        -6.87527296467310    6.20088089450894   -0.22212860263936
H        -7.54758341552093    4.98922782974663   -1.32206634932496
H        -5.50436000082539    4.44659064363493    0.89040533854708
H        -5.13786418440285    4.54169431651661   -0.85871540033308
H        -3.64684696999780    3.13576165765815    0.29155617646662
H        -2.16258830344092    1.22387476590274    0.58863089900833
H        -2.43893173757698   -4.55384851352356   -0.12591286236191
H         1.30550487505067   -2.73543764580006   -0.47804356235222
H         3.23433356559489   -4.33563225259768   -0.40878860938739
H         3.93526790585832   -8.87174813325716   -0.63735201020401
H         2.19443392865846   -8.63138700859653   -0.35784009228809
H         3.06681903936786   -7.60707759387172   -1.54060085800576
H         0.87625279559592   -7.11706003866361    1.76658345621847
H        -1.06464827360215   -5.56000823451566    1.69612704541672
H        -4.86271302313549   -3.82223567955208   -0.49476752924691
H        -6.50222665734068   -1.95151357008830   -0.64663310763853
H        -6.90767047152777    0.50250297414110   -0.56169735672928
Cl       -0.24601726621111   -0.58389248057399   -1.04896938896983
