90
 energy: -139.026238115824 gnorm: 0.000366021218 xtb: 6.4.1 (afa7bdf)
Ir        0.03355208086342    0.07450421372588    2.00898051357608
C        -1.99920070422680    1.49986068733019    4.33910664789368
C        -0.64414930448317    1.03411508786015    3.93834973437639
C        -0.12709693869566   -0.26847342584493    4.22687967191944
C         1.28219861040421   -0.26060114098556    3.94042219695430
C         2.25069868863489   -1.26308750328726    4.46343799688566
C         1.60648368235143    0.99770098643770    3.35483288518130
C         0.40469936201183    1.81383833617001    3.34482580067161
C         0.41550672580185    3.26236655473637    3.11382489561654
C        -0.10132723002400    4.13012578620634    4.07553015529627
C         0.00827250850939    5.49602070341463    3.91719820578541
C         0.64240692541121    6.04098164361119    2.80150353814752
C         0.80400546835219    7.49462831054615    2.66586972624269
C         1.97910133249583    8.02931958075031    2.14023135946086
C         2.14603948106188    9.39728264342209    2.03185623841008
C         1.14125649570178   10.25719653982509    2.44492060121135
C        -0.03247348087331    9.73772630071892    2.96641359528571
C        -0.19981795724779    8.36910028011673    3.07753382739203
C         1.14383295958154    5.17054396180507    1.83535375494226
C         1.03161270608833    3.80370164551666    1.98617990314962
C         2.98377752908104    1.47773968463565    3.04571993316892
C        -0.84413181505178   -1.34503262586914    4.96791952912572
H        -2.01504674701017    1.62409911936576    5.42296363448656
H        -2.76328855396780    0.76787110492073    4.08606194702701
H        -2.23588338758217    2.45094928382555    3.87436081160707
H         2.36190401003820   -1.08940821349781    5.53587916453177
H         3.22937012364803   -1.15730990021886    4.00304966228195
H         1.90031168064997   -2.28575768810665    4.33886224147712
H        -0.54716608265845    3.73624820730013    4.97495033347521
H        -0.36869052661969    6.15034870684671    4.68880264896223
H         2.77616983115622    7.36870457382951    1.83278684132334
H         3.06482712189141    9.79533118297066    1.62600816231846
H         1.27163586623959   11.32598378756276    2.35904773408264
H        -0.82205859898822   10.40337545707458    3.28394416811014
H        -1.12794030935310    7.97457887773798    3.46442850843639
H         1.60501057126907    5.57325797680332    0.94645729760406
H         1.40715470414944    3.14603087375861    1.21781718754495
H         3.68253084391590    1.12030737914343    3.79960747716369
H         3.31696851356860    1.11674075908965    2.07331107580959
H         3.00603979713875    2.56436507200995    3.02382337616682
H        -1.90401893739196   -1.35108044234260    4.72770197859162
H        -0.41987729068418   -2.31965647383392    4.74159116574259
H        -0.74143488484196   -1.17466170418245    6.04037280349106
C        -2.22682296617614    8.73523372818423    0.28039306928441
O        -2.39290494964211    7.36761734676988    0.63880710054485
C        -1.50043301217189    6.50477748803502    0.14521849966401
O        -0.56843891771234    6.83554632959512   -0.55308175119176
C        -1.81023544166522    5.09988070732248    0.51359001952327
C        -2.77856645797688    4.78601850983583    1.46440256704858
C        -3.09383954899338    3.46686914722246    1.71765285849418
C        -2.42672785919258    2.43616143300050    1.05070557778192
C        -2.85325222993728    1.03726395890560    1.19487724211852
C        -4.22197269948899    0.75134953185189    1.15753104792164
C        -4.66563917511644   -0.55853789303103    1.11593752652237
C        -3.72240959716584   -1.57119145461993    1.04905545055851
C        -2.37621783455689   -1.23223830695733    1.11459906481936
C        -1.30996336702301   -2.17632882315817    0.91520817633956
N        -0.10099911128709   -1.78161953547868    1.10848995961542
C         0.95334064754429   -2.60682820217858    0.57601091403710
C         2.36559196926556   -2.46460504100000    1.14808735812564
C         2.46672674177663   -4.00628758159728    1.25490354707748
C         2.87474959836157   -4.52248302132674    2.61310884224707
O         2.20888290595402   -4.38433365060152    3.61353836130224
O         4.05280899204246   -5.12835410131935    2.56316340356366
C         4.60682774349371   -5.66158252476451    3.76811470884986
C         0.95842857298398   -4.10040045316478    0.95867734841353
N        -1.94734619952765    0.04996430065066    1.24935980436056
C        -1.44078982191513    2.75381220370497    0.11802660120277
C        -1.14077142984103    4.07468343013616   -0.14884136244831
H        -2.98964393578207    9.28372514848393    0.82541495542812
H        -2.35840209427769    8.85966842910520   -0.79602771499298
H        -1.22914376869606    9.07963035870462    0.55820567678733
H        -3.28954921863420    5.57934036487603    1.98519711702473
H        -3.86407915109072    3.23711967444939    2.43853089654871
H        -4.92193377802069    1.57032019407735    1.12555515777665
H        -5.72044449852789   -0.78218781012164    1.09612082769036
H        -4.00897674123980   -2.60540835285730    0.95170912532430
H        -1.53251822134379   -3.14804963103819    0.48696566469910
H         0.95126545276210   -2.45547770375421   -0.50794976600227
H         3.08925089348914   -1.98774124950686    0.49474639850628
H         2.37076662540553   -1.97577463757546    2.11433978526439
H         3.10540315218664   -4.44773006020135    0.49285664025068
H         3.90390877284270   -5.52993787568709    4.59157648470014
H         4.80656500175292   -6.71912957818762    3.60314414776107
H         5.53750776866180   -5.13486216261555    3.97497306285403
H         0.67187674946853   -4.80426902449535    0.18280135436582
H         0.39234072500075   -4.29219523478989    1.86896503222858
H        -0.93589862172810    1.96840055706270   -0.42043218128961
H        -0.39818212501402    4.33173647821165   -0.88790919883312
Cl        1.18512059054779    0.62443539854013    0.00266466720297
