71
 energy: -118.286770642519 gnorm: 0.000671394528 xtb: 6.4.1 (afa7bdf)
Ir       -0.47642930902685   -0.73887548311952    1.45195323636018
C        -1.96600678792272    1.04606547864242    4.00245816098096
C        -0.74764422436075    0.41227502525010    3.42787043939535
C        -0.34530327846116   -0.94716403332088    3.66746546370827
C        -1.04792152427228   -1.89436329453233    4.57978182506254
C         0.98436369643863   -1.11407899013225    3.14176375390436
C         1.89671055361064   -2.25353930053435    3.43218261716617
C         1.34305380676602    0.07996641591139    2.45858390196253
C         2.69778661310898    0.39228164779980    1.92440563433073
C         0.26151573814469    1.03893365896821    2.64296171475294
C         0.37241319359126    2.47865478082909    2.35472878640438
C         0.27274483512124    3.38848079140661    3.40655143320194
C         0.43247152064715    4.73568549776956    3.14546776030505
F         0.34337701058457    5.60811625727569    4.17081970136905
C         0.68084226183209    5.22577395523563    1.87574328318432
C         0.76727185655582    4.29764038969357    0.85274997045172
F         1.00244399242847    4.73991724214419   -0.39923609377777
C         0.62123805437140    2.93978091393349    1.06378692611680
H        -2.13760252463505    2.03127474265555    3.57954969334409
H        -1.83441387955274    1.14389085925019    5.08050939660282
H        -2.84683737213545    0.43018488322307    3.83590242147077
H        -0.78603538656796   -2.92402988258947    4.35373535066025
H        -0.75103901122789   -1.68758200551143    5.60859729710014
H        -2.12569561256337   -1.77671915466927    4.50969398893280
H         2.41712804197533   -2.04612677760259    4.36803139214508
H         1.35242589243932   -3.18628359412003    3.54848898671426
H         2.64223903244891   -2.37194098435875    2.65141387830300
H         3.09193342572315   -0.43826851671323    1.34408192502626
H         2.67763384459302    1.27914554616847    1.29864127922958
H         3.37521401163407    0.57035968625418    2.76028393644381
H         0.10156174738390    3.05915326740851    4.41813932775112
H         0.80227308197300    6.28018162544953    1.69207090996210
H         0.67652858256391    2.25664405911780    0.22966624707997
C        -7.90589701756486    4.67583662627073   -0.00553444595068
C        -7.30631127492144    3.27917674819501   -0.02407693860988
O        -5.93348208154789    3.38983001727559    0.34103597567341
C        -5.16853831510635    2.29753320091405    0.39653764950888
C        -3.81055753152580    2.52771004566975    0.74713044978619
C        -2.92675120857924    1.50046839331903    0.86747072339926
C        -3.32865463563221    0.16691423046130    0.63264272955104
N        -2.45247627115342   -0.85136886395277    0.75909049960311
C        -2.82241864780822   -2.08932593772137    0.38521423454489
C        -1.76388267403797   -3.04762075384621    0.39223709737294
N        -0.59383200820448   -2.63076234984753    0.76262342305205
C         0.50795241149409   -3.49737510481928    0.72809732849003
C         1.69934016230554   -3.05708555741990    0.14919410541845
C         2.79039117764595   -3.90112425780043    0.08284563913203
C         2.68486934064608   -5.17464305322821    0.62035988375226
F         3.75231202350429   -5.99525367349724    0.56953412142254
C         1.51765385484271   -5.62754497262384    1.21292578320458
C         0.42246309986227   -4.78580974284265    1.25853579403724
C        -4.13308635411912   -2.38981022258830   -0.03547436891583
C        -5.06248571068912   -1.39143644575230   -0.08487488805620
C        -4.67926723767990   -0.06713622499289    0.22697607170061
C        -5.57936526975196    1.00447946777930    0.13375886906023
H        -7.81903992083641    5.10826286150720    0.98713656717975
H        -7.38484664903790    5.31685658674664   -0.71114016471792
H        -8.95510915218058    4.62573797537831   -0.28019128148215
H        -7.38490454151006    2.84363281058473   -1.02750881438998
H        -7.82516579361890    2.63122387431357    0.69269066430937
H        -3.50563982894849    3.54916981759728    0.90708415385897
H        -1.89167860169409    1.69737425780771    1.09529913578896
H        -1.92045348727762   -4.05676065018041    0.02935484662484
H         1.74181998822154   -2.06594641013159   -0.27590472888197
H         3.71350064267166   -3.58898137414230   -0.37830903401465
H         1.47718488035627   -6.62275394369297    1.62526124566168
H        -0.49116314136628   -5.11723158225043    1.72712064065316
H        -4.37610684435175   -3.40403011751635   -0.30613461309476
H        -6.08002183428012   -1.59122286306479   -0.38265614281723
H        -6.59159986893825    0.78776248794396   -0.16633590817097
Cl        0.05127743760778   -0.03045100703526   -0.76322284934303
