81
 energy: -126.792831679247 gnorm: 0.000366276317 xtb: 6.4.1 (afa7bdf)
Ir       -0.71466376831665   -0.73833880195025    1.55848972178374
C        -1.62209871341265    1.36820340552930    4.18401060611194
C        -0.65201004558769    0.43621805195338    3.54824497800759
C        -0.64369497240468   -0.99122866739253    3.77213495959241
C        -1.59014792016658   -1.70583424636457    4.67658881966840
C         0.58576297945663   -1.51135572730924    3.25662865899697
C         1.13622511331172   -2.86739378921257    3.52359797258588
C         1.24561924082975   -0.45998325909920    2.55455222165005
C         2.63514531223543   -0.51403934647410    2.02091730748712
C         0.48780851488778    0.76731983206058    2.77599177221419
C         1.00015948698271    2.11574108472557    2.48774106833526
C         1.15792515957265    3.02123669552425    3.53603175350428
C         1.68892074573076    4.26963321347748    3.27225328362817
F         1.84000449919394    5.13797708955310    4.29498798795183
C         2.07182107589322    4.66513348591017    2.00339382889030
C         1.89793711552681    3.74509979012337    0.98384049262737
F         2.25231204269928    4.09903504755052   -0.26891239308379
C         1.37381501991070    2.48534281903917    1.19720215039445
H        -1.50815041098574    2.37664225407789    3.80075504056614
H        -1.43867713660171    1.37975714143160    5.25920834076648
H        -2.64598024621414    1.03801414704151    4.03005816627545
H        -1.61892386625094   -2.76877270793731    4.45455836576530
H        -1.26478022254981   -1.58382882656498    5.71028644068097
H        -2.59383255219186   -1.29929049163025    4.58875574659445
H         1.73665338331234   -2.82319611547544    4.43296887634868
H         0.34414435850245   -3.59488604090105    3.67496583562399
H         1.77505646354707   -3.20764102018886    2.71342549435090
H         2.89514568249912   -1.52669060574385    1.72555005177295
H         2.75636065066300    0.15129385694681    1.17085714209274
H         3.32925873811007   -0.19605550335188    2.80001244227124
H         0.89894511176893    2.75859656019707    4.54859741196854
H         2.48558812327327    5.64200550017232    1.81746123828516
H         1.23059038710462    1.81595664318779    0.36318441024921
C         2.61074827444179   -7.76314047548136    0.54448391125796
O         2.78838010171902   -6.42566219705174    0.11887573608548
C         1.79076677479919   -5.54092565022028    0.30913729152163
C         0.56952615370015   -5.82070359514614    0.90867292466630
C        -0.39671600303830   -4.83967322068977    1.05024033021676
C        -0.14288234577270   -3.54252881160197    0.61578365725382
N        -1.10590143020707   -2.54078148500769    0.76184695070850
C        -2.34253793491343   -2.78817711635844    0.48377335269401
C        -3.32162354417587   -1.76164166815084    0.69487282579467
C        -4.67236124793757   -2.02703633174972    0.54508552173185
C        -5.57483799270804   -1.00559466157509    0.82400880541414
C        -5.08988860368009    0.22978614146681    1.16375696399480
C        -3.69371350956753    0.48326222848738    1.22236624277560
N        -3.23769275449596    1.72753143439548    1.48914767219692
C        -4.11672103282819    2.78351361470217    1.96774765446119
C        -4.66798604075559    3.62422005815336    0.81480196543910
C        -3.50113904058835    4.21998583281245    0.02984905981733
C        -2.55143382260495    3.10672572389591   -0.40408128343320
C        -2.08736896405318    2.28917364964776    0.80505594317833
N        -2.82796893302158   -0.54609826882104    1.05849351318075
C         1.09230930145097   -3.23779418762107    0.02979714616433
C         2.04573575501226   -4.21950703550469   -0.15267563310427
O         3.24519303991585   -4.03439745729092   -0.74984467409100
C         3.51937622226004   -2.78138418121451   -1.34533507143152
H         2.45380865200518   -7.81731314564628    1.62523587006716
H         1.77608463435959   -8.23907383475897    0.02266913903942
H         3.53668135026471   -8.27330396854603    0.28681235525820
H         0.35693588149393   -6.81406362387341    1.26702815374166
H        -1.33176112075268   -5.07881445947139    1.53122782529908
H        -2.64718617521380   -3.74452167638062    0.07406465781885
H        -5.00224419137652   -3.00396469096611    0.23689735874425
H        -6.63717353053131   -1.17549074749616    0.75003607071247
H        -5.78142405464216    1.03516857126537    1.33491399002206
H        -3.50580654449227    3.42881071676112    2.60579010970970
H        -4.91162165676925    2.36803168057230    2.58504750664935
H        -5.27009153294448    3.00279140560438    0.14953307692595
H        -5.30442787902497    4.41600139819955    1.21087930886301
H        -3.86992884590471    4.75935605469444   -0.84365468161575
H        -2.96335838881231    4.93362875614866    0.65808991627438
H        -3.05532621743069    2.44451624948123   -1.11129958346601
H        -1.67639676765601    3.52408044421340   -0.90272562906182
H        -1.42690927888338    1.49466607195011    0.46976513963622
H        -1.54472495214097    2.93665501533612    1.49727063267744
H         1.25657173254944   -2.23269483110346   -0.31991949191673
H         2.76645564650787   -2.52515528891548   -2.09529363534960
H         4.48896197916479   -2.89518738435151   -1.82561690258712
H         3.57508356736994   -1.98611827821911   -0.59771931130817
Cl       -0.10843708034851   -0.14445924366603   -0.69625887650536
