89
 energy: -124.597266006310 gnorm: 0.000196376900 xtb: 6.4.1 (afa7bdf)
Ir       -0.60456478475202   -0.99934318322210    1.29217000180785
C        -2.29758213054687    0.67986255633932    3.78079154019288
C        -1.02696118749101    0.09062161883353    3.27264914951649
C        -0.60680732050106   -1.26203475131326    3.50561678714796
C         0.76084308797485   -1.38390609045804    3.06224285666840
C         1.69568235895415   -2.48848803074301    3.42461245846215
C         1.13043701076943   -0.15982072018425    2.44201424827828
C         0.01465468483313    0.76453859331011    2.57132668859722
C         0.11801994075594    2.21417600638942    2.33610725368314
C        -0.07703581708392    3.09537587233820    3.39914373314941
C         0.08246207749694    4.45515344329986    3.22003977521144
C         0.44055961778876    4.97716881657342    1.97820300891652
C         0.64179172661801    6.42232822650905    1.79439873037521
C         1.70306451050673    6.89130179518071    1.02212302074861
C         1.90280866747678    8.24848382498435    0.84935570778415
C         1.04166439912773    9.15999082657860    1.43856811386485
C        -0.01663279047401    8.70517700106355    2.20820231812078
C        -0.21320042467826    7.34821641212425    2.38859911425607
C         0.61760009773383    4.09304932145832    0.91478684430777
C         0.46065066715552    2.73292681815853    1.08887361443952
C         2.49924502483013    0.22215730655174    1.99461599260575
C        -1.34276770514731   -2.24705567496019    4.35109444951483
H        -2.25543910959462    0.72226184271180    4.86962981091253
H        -3.15548816493928    0.06844891424912    3.50849301878361
H        -2.44469251139457    1.68455911467864    3.39639562442460
H         2.27187304983646   -2.17445159770639    4.29636138181606
H         2.39941044075427   -2.70283123602043    2.62462240387705
H         1.15906566102159   -3.39456648292055    3.69069647203883
H        -0.32154939268516    2.71058423484204    4.37743699807914
H        -0.04370249901625    5.12039211757258    4.06115440856531
H         2.38874858571435    6.18765683713263    0.57286464463992
H         2.73442616174138    8.59790878184796    0.25454736462596
H         1.19665081121315   10.21998982172525    1.30058575485199
H        -0.69124495908858    9.41240855313216    2.66868364270012
H        -1.04795311080147    7.00387635860156    2.98146497468851
H         0.86736344189100    4.47758303579314   -0.06282094715079
H         0.58092956001174    2.06754677001090    0.24715841978912
H         3.12295893394179   -0.65416470553384    1.84483193691205
H         2.46424700124891    0.79394552564555    1.07103656090852
H         2.95867419251492    0.84972780196305    2.75899766316546
H        -2.41675886275736   -2.11375479994900    4.25589462411194
H        -1.09128096409979   -3.26917202497094    4.08162456716930
H        -1.07358363597815   -2.09606299773047    5.39724597480989
C         5.20820491946041   -2.99477630117171   -2.93285163087913
C         3.87636177564430   -3.45979974555264   -2.35335578900186
C         3.98524795538042   -3.73360235249008   -0.85429114953464
C         2.70542668802036   -4.30237916313020   -0.23928195307228
C         1.54596904431939   -3.30857308409876   -0.26712222972515
C         0.34118900021868   -3.84273265484398    0.51688443578198
N        -0.73507953385400   -2.88556275635847    0.52422325482317
C        -1.85162996408093   -3.18478580564994   -0.04172869698713
C        -2.86959146077409   -2.17838874100619   -0.09327416667545
C        -4.14090183714510   -2.40627355428814   -0.65975045356687
C        -5.04431672641981   -1.38610326900350   -0.70228699436394
C        -4.66201150951522   -0.10306224251117   -0.24459280310710
C        -5.52075487542611    0.99617129175419   -0.31248557917241
C        -5.11327166342910    2.25865682810013    0.08970084199218
O        -6.01940891067166    3.23991119738730   -0.00529930862437
C        -5.69399039653979    4.56449041575885    0.40367061962654
C        -6.93952755969555    5.41815972476906    0.22428884218289
C        -3.78554571098984    2.42785530379399    0.54655386286283
C        -2.93722426519685    1.36074678337528    0.64438068138713
C        -3.34425530669838    0.06176673026184    0.28760213045599
N        -2.50557978715334   -0.99251438077591    0.41425728058467
H         5.53410177513759   -2.07480261014553   -2.45175617218547
H         5.11714216033298   -2.80747745804146   -4.00055857305561
H         5.97784112281652   -3.74959905743940   -2.78304393561551
H         3.12461525700279   -2.69082868559632   -2.53700317741084
H         3.55909456583077   -4.37060751509132   -2.86652307060360
H         4.25520519717875   -2.80662498829933   -0.34387753025706
H         4.79581071788596   -4.44766013916930   -0.68938068860632
H         2.91506485905669   -4.58444163890813    0.79524789622560
H         2.42353521026476   -5.20988285542424   -0.77671039676438
H         1.86216345037196   -2.35489217770909    0.15793829959026
H         1.23790742467295   -3.11941193785566   -1.29480445280371
H         0.00415349275168   -4.78346799980508    0.06992193988089
H         0.64139111564125   -4.03443627136956    1.54875097233667
H        -2.02144420853971   -4.15389298104199   -0.50003402908803
H        -4.37493390964266   -3.38796712844769   -1.03707081517119
H        -6.03723809856444   -1.53022036962195   -1.09834329035347
H        -6.51929947250749    0.87151639431059   -0.69943108310438
H        -5.38505640488407    4.56132015687173    1.45600491499311
H        -4.87403340121134    4.95399995771005   -0.21248119394897
H        -7.25428028023382    5.40580699990563   -0.81544755672357
H        -7.74924197512854    5.03180836557074    0.83698487571180
H        -6.72687590582471    6.44133816825893    0.51935254363876
H        -3.42320104116343    3.40764100358958    0.81204282197182
H        -1.91721780958072    1.51835213721268    0.95258482108336
Cl        0.11043694205169   -0.25882344764433   -0.86079302209555
