70
 energy: -103.225024172237 gnorm: 0.000967370114 xtb: 6.4.1 (afa7bdf)
Ir       -0.45947920217331   -1.12360834575184    1.37654430615257
C        -1.93540799847303    0.96437231490726    3.66387805709907
C        -0.73367002251744    0.23327926747531    3.16874464703573
C        -0.41113094328588   -1.10473862511737    3.59943418975178
C        -1.19542309417846   -1.89599795456646    4.58955149856442
C         0.92641322660166   -1.40598333225392    3.16212153560556
C         1.73178419335794   -2.57348463328848    3.61554333726752
C         1.37418017709943   -0.32317966502793    2.36231602583555
C         2.74446081180073   -0.15556221862728    1.79907403696897
C         0.33947739124635    0.70705096978436    2.35961112494884
C         0.58488780679041    2.09640177784572    1.83523589559858
C        -0.49588897023793    2.63328149845990    0.89020566102027
C        -0.07891027088081    4.00039491699088    0.35431424883236
C         0.14577088089346    4.98058930821909    1.50339036506894
C         1.20048400693481    4.44331333296013    2.46740008017163
C         0.79374871445935    3.07349876614337    3.00384453451198
H        -2.83007222671587    0.34990089009086    3.58817202619972
H        -2.09690004210123    1.89557544798519    3.13351884940086
H        -1.78400121968586    1.19391088228984    4.71952808083214
H        -0.98296018956026   -2.95759447483624    4.50001648855993
H        -0.91935328905691   -1.58134197425935    5.59668485350983
H        -2.26301735778224   -1.73646030330075    4.46745502581156
H         1.10766696161659   -3.44355711169575    3.80012492503524
H         2.49695499789241   -2.84267679905643    2.89295495796640
H         2.22754438451417   -2.30933879368559    4.55046438466382
H         3.29998141750933   -1.08769657347592    1.84174537786516
H         2.70215062384895    0.17832725556048    0.76408440784618
H         3.28484994983018    0.59489382366463    2.37615289274380
H         1.51502236257623    2.06589692226777    1.26000467856522
H        -1.44657409767280    2.74534866594636    1.41155815425113
H        -0.62945640187957    1.93491530742913    0.06246006027497
H        -0.85133586325121    4.38400325023124   -0.31521696562825
H         0.84185866462916    3.90240549372295   -0.22503003846363
H        -0.79292927885019    5.13508901050944    2.04086467309567
H         0.46342347417201    5.94779619694067    1.10893720667760
H         1.33258139903072    5.13769544411612    3.29970567598717
H         2.15781193891156    4.36337391191266    1.94706042644055
H        -0.12762444175624    3.17051205400686    3.57839970329693
H         1.56836454381306    2.69144874359282    3.67154616087637
C         3.67561557972659   -7.93464221987818   -0.29164825962499
S         3.81973750439513   -6.97134382849153    1.23468194921382
O         3.55026195242027   -7.83274083480672    2.36269809661731
O         5.07682869519253   -6.26002427273240    1.23188002928574
C         2.48406661192808   -5.77115006259125    1.10216049289451
C         1.22214765195390   -6.11196024006263    1.55272363002068
C         0.18309723533205   -5.20871597320248    1.41669677502161
C         0.42726617069265   -3.96032495827674    0.84184062088990
N        -0.61118054635204   -3.02774319902165    0.70555623901246
C        -1.70473585058143   -3.35755554629945    0.09412014231100
C        -2.70442700435209   -2.33818003848659   -0.01859486997824
C        -3.90537527376296   -2.47947861328295   -0.71536893128372
C        -4.76892335360371   -1.40284595855386   -0.78924065474174
C        -4.40485688886091   -0.21204102607424   -0.16919528190411
C        -3.19786513897628   -0.14050900792032    0.50442916879157
N        -2.36405273830086   -1.17360361762774    0.59136612301572
C         1.70846844829065   -3.62057176228989    0.40566850228705
C         2.73575995360160   -4.53814861642541    0.52794379554565
H         4.46832810764643   -8.67286486321892   -0.29336518016138
H         2.70702835942923   -8.41710368276410   -0.29179503994440
H         3.78566457398045   -7.25609297917429   -1.12782480231907
H         1.07478393916964   -7.07446501261439    2.01551160051569
H        -0.80565460606767   -5.45284268222921    1.77302506990109
H        -1.83895646728616   -4.33609131614949   -0.35156503121385
H        -4.13520793961419   -3.41865171462946   -1.19191503437940
H        -5.70283790713660   -1.48250921851684   -1.32276236259996
H        -5.04686371506854    0.65266564520631   -0.20558767963954
H        -2.88706981618021    0.77355029676528    0.98651289670781
H         1.87114692161677   -2.65464984063706   -0.04758181042195
H         3.73732189476006   -4.31092963569881    0.19945797752243
Cl        0.21497862854298   -0.56169286835575   -0.84536772159524
