75
 energy: -122.779875387067 gnorm: 0.000559517142 xtb: 6.4.1 (afa7bdf)
Ir       -0.92961985600415   -0.39994581892258    1.57967533692757
C        -2.26766877743164    1.42039565800653    4.14205303114101
C        -1.13707547081916    0.62427892409409    3.59375556871863
C        -0.99142109905874   -0.79509955407541    3.77465965785499
C        -1.91530757659808   -1.65187820349691    4.57115937353258
C         0.31508152839834   -1.16510569319304    3.31424655621992
C         0.99094622183866   -2.46902588039219    3.54424953745921
C         0.93091048788267   -0.01258441134896    2.74195235250893
C         2.35655314317458    0.06234454210215    2.32116009856249
C         0.03184409292700    1.11366941352173    2.93276790731900
C         0.43024090809925    2.51943120721701    2.76402290601610
C         0.32642644761725    3.39526575969367    3.84357311663396
C         0.75206071657660    4.70176577749764    3.69232577623979
F         0.64775293230179    5.53973871551622    4.74380774357602
C         1.27784962142146    5.18311031423437    2.50706747246548
C         1.36549368185502    4.28982564717590    1.45281794089376
F         1.86415336425211    4.72609869803808    0.27917697254975
C         0.95704071062711    2.97429371467793    1.55470491275961
H        -2.28065039698293    2.42502611131896    3.73345631194681
H        -2.15673378900224    1.48547877465415    5.22540098455317
H        -3.22045085001357    0.93622937088746    3.94181159600702
H        -1.78727472343848   -2.70199108021631    4.32560579154037
H        -1.69749421275739   -1.52355011929219    5.63209652463888
H        -2.95169266162510   -1.37173887972659    4.40476001954656
H         1.49931069089687   -2.42651658014226    4.50870222275688
H         0.28228084694050   -3.29173243876924    3.57486475372096
H         1.73855634772028   -2.66774001575254    2.78116052558173
H         2.58522376437009   -0.69144996246492    1.57102222447571
H         2.59655193383026    1.04078764920944    1.91698064225113
H         2.99254588834741   -0.12374966491726    3.18710037668595
H        -0.05128848662475    3.06904206527329    4.79823729435482
H         1.60518364536575    6.20458003207652    2.40905200042228
H         1.01032974717708    2.32640377905485    0.69333196430422
O         2.38172015034652   -7.31206910064639    0.71212584997754
N         2.65373932069430   -6.20606376128729    0.28161238938803
O         3.71617619834112   -5.92135848000505   -0.24024581545803
C         1.66132898958207   -5.17622228122585    0.39627270677564
C         1.95047701558614   -3.88940345859417   -0.05149100624838
C         0.99387330337759   -2.90120996667194    0.05400678329534
C        -0.26048592194238   -3.19831165695397    0.59155246890129
N        -1.24047195045951   -2.20302364188165    0.69391910999696
C        -2.44671167557938   -2.44896122258215    0.30595968369828
C        -3.45571529463345   -1.45091558365736    0.50238243614104
C        -4.79380220181096   -1.76935633229595    0.35041363219069
C        -5.73888367234951   -0.81034440949452    0.71385492035352
C        -5.30736609517732    0.43668367285514    1.07226193066527
C        -3.92127719464299    0.77068730811890    1.04534574280925
N        -3.54179496314914    2.04861965219062    1.17386278742366
C        -2.30449541889035    2.54853796474056    0.60478423210271
C        -2.59760377183352    3.76603182089162   -0.26943329208260
C        -3.10226272077046    4.93271418219652    0.58682617461483
C        -3.77967534215462    4.39588176986974    1.85091466248793
C        -4.49794032193437    3.08178489411202    1.56454785610152
N        -3.00732321737798   -0.22349326397070    0.89214678011192
C        -0.53678387691617   -4.49260806129621    1.04761880954588
C         0.42129404551221   -5.47958409557087    0.95232014975599
H         2.92035227970206   -3.68513365712074   -0.47763825883618
H         1.19091739646713   -1.90297673511029   -0.30457990848327
H        -2.70789217403144   -3.39041624944207   -0.16609793905680
H        -5.08506473553887   -2.74638245196202    0.00562674416074
H        -6.79172913058706   -1.04204782831219    0.69270762463531
H        -6.02733830275760    1.19209298233808    1.33038707535374
H        -1.60371870181696    2.83422876113191    1.39013076007778
H        -1.85623840820869    1.76585495354998   -0.00308472911310
H        -3.34114095658489    3.49292293179978   -1.01937425410098
H        -1.68774304147856    4.04538704037296   -0.79947498094437
H        -2.27343716007124    5.58234431364590    0.86968547186880
H        -3.80386202253752    5.53471340429001    0.00899761964525
H        -3.03877100483619    4.24645178791617    2.63680428491639
H        -4.50584138076764    5.11731997656502    2.22483783201437
H        -5.23043977336487    3.25081302442563    0.76741812845144
H        -5.02104801790860    2.75671344026128    2.46658487719386
H        -1.49645540030632   -4.71325299014228    1.48846756160707
H         0.22838700966248   -6.48367995318144    1.29700940569448
Cl       -0.08932268012943    0.23352544858310   -0.56854380180527
