61
 energy: -97.839746191382 gnorm: 0.000570695788 xtb: 6.4.1 (afa7bdf)
Ir       -1.19320814283993   -1.52651517572684    0.86920787280155
C        -2.34553242911176    0.60945217658682    3.28119499399679
C        -1.21128867487745   -0.08842792710086    2.61254520303465
C        -0.67653375375990   -1.35774591401981    3.02942233894305
C        -1.13799307376294   -2.14029616093410    4.21166567635313
C         0.56567050329551   -1.57013540448344    2.32444442985468
C         1.57085419862368   -2.61336569502324    2.67296076519199
C         0.73493048661512   -0.50326671645588    1.40642158280263
C         1.92634751482997   -0.23105082168308    0.55689616491763
C        -0.38605073476010    0.41046538217052    1.56410793273496
C        -0.46366623041762    1.75188930891783    0.91480183470125
H        -1.99507161843143    0.99937578723529    4.23768666003475
H        -3.17021423340630   -0.07011678565342    3.48184419397661
H        -2.70616009292553    1.44580956285043    2.69027101645650
H        -2.21741695851893   -2.08792498395562    4.32267478896997
H        -0.83829430129918   -3.18148378569497    4.13292594133576
H        -0.68433090913705   -1.72513013161715    5.11252589778961
H         1.10175879985246   -3.57525253639706    2.86417484474172
H         2.30805514323484   -2.73054568646616    1.88434704494695
H         2.08971407036428   -2.30411357101407    3.58115496906314
H         1.62667313924555    0.18754161482442   -0.40131546608446
H         2.50802879892072   -1.13147632985914    0.37502780842683
H         2.56562938550352    0.49645876356496    1.05828047402377
H        -1.42885868897203    2.22102459514682    1.08067323199699
H        -0.29825391934510    1.66648979516302   -0.15716669303267
H         0.31191574137907    2.39929418466315    1.32411731433514
O         3.54617968869119   -3.40722532709546   -0.41973097858733
C         3.21075855355210   -4.57146642530514   -0.39995378856729
O         4.02352715433933   -5.56745670853041   -0.72076567662688
C         1.85401554157267   -5.02052743268909    0.00931505819028
C         1.61535193622926   -6.32336923549545    0.44123293004036
C         0.34627636688289   -6.67978638870431    0.86578296128114
C        -0.68645908110393   -5.75863509775515    0.85193779788146
C        -0.45177424274835   -4.45499458936813    0.40917553516256
N        -1.47177679870967   -3.49652212398677    0.37998846835932
C        -2.64924383680883   -3.81208493947202   -0.06689862001097
C        -3.62775465927877   -2.77537357047979   -0.09678156525399
C        -4.91866016178989   -2.91130068856813   -0.62188415203406
C        -5.75335093048214   -1.82095213892894   -0.66201987115322
C        -5.28910838669893   -0.58605372978265   -0.17605548591298
C        -6.10178042103940    0.59973408684775   -0.19797865653558
C        -7.38734271009120    0.82098086193773   -0.65015920046520
C        -7.65743704486894    2.18381753085832   -0.42673015396952
C        -6.52869265710451    2.70156451355124    0.14395063554295
O        -5.59145033953869    1.76058444047682    0.28547620360341
C        -3.98797634566929   -0.53377016179360    0.33948702699107
N        -3.18627863582697   -1.58458860235713    0.38787569339624
C         0.82398555075246   -4.08895307368710   -0.00450819832760
H         4.90956874451336   -5.25268526523969   -0.97537573607003
H         2.42236098716164   -7.03777968145219    0.45389152202364
H         0.15970837871353   -7.68358325392299    1.21375571980508
H        -1.66591066220309   -6.03623218072559    1.20992100359062
H        -2.86987479959703   -4.79975520590692   -0.45500280040666
H        -5.23493294483664   -3.86944697090057   -1.00096815391071
H        -6.74711081847370   -1.90501495475402   -1.06898929714210
H        -8.05366884138528    0.10610335333989   -1.08613630425174
H        -8.56106960443847    2.70888237064845   -0.65668330752591
H        -6.28902724793165    3.69179256797012    0.47840723828491
H        -3.60324357747740    0.40239074911316    0.71412901305891
H         1.00614833610719   -3.09018728346088   -0.37161825389995
Cl       -0.90803451071996   -1.12872598951555   -1.47563942893382
