59
 energy: -77.974932129276 gnorm: 0.000293125162 xtb: 6.4.1 (afa7bdf)
Ir       -0.53201166930252   -1.44940506365178    0.97059878170122
C        -2.39490657913830    0.50963179788636    3.11128315433552
C        -1.12436052299198   -0.19429111954928    2.77698721958093
C        -0.80565806401212   -1.54076296947393    3.18447391277400
C        -1.67374338495645   -2.40670428279397    4.03354156064661
C         0.59516106139027   -1.76158358183517    2.92324778682826
C         1.39938406444699   -2.89699501634904    3.45809507355513
C         1.09748453640131   -0.61820881797741    2.24586987441460
C         2.51872330596646   -0.32711899755980    1.90298460583440
C         0.02416182440666    0.35930072552108    2.15509257570509
C         0.22334173969845    1.76430535444799    1.69773992569815
H        -2.36810891148987    0.78929121378738    4.16537882355397
H        -3.26037999187615   -0.13178669429022    2.96163186361476
H        -2.51451029758152    1.41885351502706    2.52871096717859
H        -2.72538004574541   -2.23565696923069    3.82270762563201
H        -1.45275229441628   -3.45949237574520    3.88183161688184
H        -1.49535221269290   -2.17163603746771    5.08356179314801
H         0.79591833103043   -3.79273331162330    3.57698071636176
H         2.25570899955782   -3.11508745902740    2.82590488156005
H         1.77448646990950   -2.61763775872110    4.44390788392331
H         2.59254587546971    0.09638852800643    0.90311713100390
H         3.13204437859264   -1.22205864845405    1.95402069096810
H         2.91600363848891    0.40536727550597    2.60619421614178
H        -0.72053990391904    2.29123187717198    1.59390908582408
H         0.73861534857193    1.78356979501923    0.73950513105083
H         0.84023480497972    2.29629777457711    2.42247470387891
C         6.83840899779549   -4.37117382061149   -1.25944413654890
C         5.58499122058601   -4.92437485414923   -0.59028970536410
C         4.37734769828607   -4.01436166164826   -0.80818158585266
C         3.11160556483768   -4.57387343980107   -0.16114648834278
C         1.91928825010723   -3.64616239194529   -0.37854315491330
C         0.64213471133990   -4.21727525807371    0.25263363610972
N        -0.45367083817678   -3.29382247330434    0.10324659839416
C        -1.38076074010448   -3.55347688541646   -0.75355397610660
C        -2.42320778457815   -2.57935660607850   -0.91183760350173
C        -3.47062516412828   -2.68082037389251   -1.82731929919255
C        -4.39568334846951   -1.65692192029160   -1.90389196745901
C        -4.24088122754759   -0.55515522182727   -1.06915942325735
C        -3.17508288240462   -0.51938252925342   -0.18769495526061
N        -2.28964802021191   -1.50747864913545   -0.09377880086642
H         7.68563520188385   -5.03236547702874   -1.09111914088818
H         7.08572473434833   -3.38957118865885   -0.86053305676200
H         6.68860101459174   -4.27512941636906   -2.33295487048335
H         5.36928722229716   -5.91570886150592   -0.99509384661430
H         5.76846290670665   -5.03769106332021    0.48074200813223
H         4.21166649490882   -3.89082274517890   -1.88050972030716
H         4.59352825330700   -3.02684078395148   -0.39520715089845
H         3.28546115668577   -4.71223358590035    0.90800981141995
H         2.89643524620993   -5.55521383658277   -0.58871734595104
H         1.75348126142790   -3.50376879338183   -1.44724283927650
H         2.12634928914605   -2.66497474444429    0.05020531785157
H         0.81298523183538   -4.38665752616101    1.31662271353347
H         0.39824812756475   -5.17223734742931   -0.22333710625523
H        -1.37881562244384   -4.46104780670509   -1.34782448504030
H        -3.53712336488047   -3.54766263689819   -2.46460717035187
H        -5.21721874316433   -1.70772732762072   -2.60069538125340
H        -4.93645238769660    0.26739026612123   -1.09998555873866
H        -3.02858710075890    0.32906763675736    0.46275355783967
Cl        0.34160513991602   -0.55932242952024   -1.07272447558690
