79
 energy: -125.612651965055 gnorm: 0.000655818838 xtb: 6.4.1 (afa7bdf)
Ir        0.21392754399700   -0.56629977403967    1.45631538235218
C        -1.05535022954899    0.70160255956740    4.27577695172459
C         0.15353080138494    0.38920587395982    3.46077839931709
C         0.94456566866280   -0.79560778310541    3.56282153860090
C         2.08055665089959   -0.65252075302474    2.69021196643224
C         3.27591946140046   -1.54542376447315    2.66983521965969
C         2.02093206406244    0.64956253785283    2.09426682640377
C         0.80894646934308    1.28097483769917    2.52739174104327
C         0.42883887911506    2.66741645216853    2.22891418699346
C         0.11755844460879    3.56174360724037    3.25228805149232
C        -0.22297064488488    4.86765632492849    2.96016307258233
C        -0.26130059939851    5.32271463379450    1.64248551420542
C        -0.62156599117138    6.71579316955931    1.33940818087490
C         0.07841950057888    7.43444189556601    0.37235671381729
C        -0.25020178217241    8.74964927385898    0.09924971265568
C        -1.28723870737794    9.36551677500508    0.78120955252369
C        -1.99339405872505    8.65783061810014    1.74040082457281
C        -1.66246845275473    7.34458514839781    2.01956006806301
C         0.05528742213485    4.42657611026956    0.62165874804438
C         0.39528943886889    3.11918509367962    0.90799300322700
C         3.09826675785983    1.27113510399259    1.27930281987434
C         0.72935035330478   -1.91743459494373    4.51841232904433
H        -0.74719688015446    1.00785430327509    5.27595606910290
H        -1.69423448278596   -0.17204027595807    4.38107991601537
H        -1.62894544426648    1.50868840125286    3.82795424112611
H         3.96081284277016   -1.24039326667377    3.46204016667653
H         3.79833807046747   -1.47277463976940    1.72051858812967
H         2.99832571685774   -2.58162925289167    2.84105882795825
H         0.17302450848905    3.24264923381728    4.28087133355116
H        -0.43951856212529    5.55324256775519    3.76532380924386
H         0.89954989112609    6.96837491296352   -0.15221725163828
H         0.30608319612478    9.29831351778401   -0.64690277511749
H        -1.54285156718795   10.39271153581510    0.56630896406644
H        -2.80595300396148    9.13185995468793    2.27169171220245
H        -2.22815009124397    6.79580447596664    2.75827102412038
H         0.01549830084456    4.75315122141235   -0.40668960877991
H         0.61672906968422    2.43148543268954    0.10474075241922
H         3.12942414122102    0.83741086417187    0.27998125960271
H         2.93361035369271    2.34117447331648    1.18134807206271
H         4.06235073647026    1.09390581042044    1.75287542366926
H        -0.31103209801863   -1.98092842850079    4.82319871372060
H         1.03530632861511   -2.86582834350311    4.08273763534680
H         1.33602044070173   -1.74565458070133    5.40813494860426
C        -1.02068901540236   -7.01390285075544    3.30224704001541
O         0.27761388387302   -6.94925703799996    2.73903813766185
C         0.64686717573745   -5.83619904788703    2.07851340792655
C        -0.13798396293124   -4.70217043703736    1.89596811264002
C         0.36458073785942   -3.59626414725157    1.20633261791902
N        -0.43075662361809   -2.45582984985521    1.02723521153953
C        -1.63345600524426   -2.56260934581721    0.55462647924869
C        -2.38197634231550   -1.35662401373327    0.39215633328422
C        -3.66139742000759   -1.27571224819925   -0.16915716844843
C        -4.25898368248099   -0.04579834403047   -0.31238186256085
C        -3.57107706546336    1.10704226887648    0.10606952034839
C        -4.14549429723465    2.41683930835394   -0.03284055366202
C        -3.66078984414440    3.67117374771378    0.28387115218823
C        -4.66109616968785    4.58619710206252   -0.08982015750731
C        -5.68309784585337    3.83745450643521   -0.60466607512770
O        -5.38301516250696    2.53777359178200   -0.57340576614837
C        -2.29780622169549    0.94023937046848    0.66491563467582
N        -1.72705696676821   -0.24184437459263    0.80592660406406
C         1.65395416316198   -3.60735263605170    0.68566169801924
C         2.43791925104187   -4.73747013137394    0.83981196287244
C         1.94024214019629   -5.82332868394910    1.52791285066760
F         2.71848556163078   -6.91525625766021    1.68429557352818
H        -1.16046066283885   -6.23916687277578    4.05993783743248
H        -1.08045853643297   -7.99408021659218    3.77018304010976
H        -1.78968066971565   -6.93135630259014    2.53046515169443
H        -1.13300259530395   -4.65448684860438    2.30734895408577
H        -2.04368611896635   -3.51893986165050    0.25132694465152
H        -4.15679772889089   -2.17691667013215   -0.49247371648093
H        -5.24134839563323    0.04962051906990   -0.74655549092236
H        -2.71186235826729    3.91114296153840    0.71782539927318
H        -4.62835418840334    5.65114724673180    0.00712004419344
H        -6.63719206627379    4.11412580845867   -1.00844360581665
H        -1.73391805511717    1.80092878667261    0.99295118196133
H         2.01211157572086   -2.75276288589197    0.13545463869627
H         3.43470376821182   -4.78709534094679    0.43303292726539
Cl        0.78877928540630   -0.38130307578977   -0.84424368593289
