68
 energy: -103.733961092492 gnorm: 0.000901077993 xtb: 6.4.1 (afa7bdf)
Ir       -0.69030854580338   -0.78081467548215    1.33685548213647
C        -2.13524021100059    1.19331120145620    3.74460757160702
C        -0.93555265660053    0.50610806923239    3.18697832364319
C        -0.57773135593865   -0.84162818421304    3.55826164858897
C        -1.31890590124994   -1.68007159129362    4.54261942075911
C         0.74656461876704   -1.10438523347183    3.06529237944796
C         1.58553743103810   -2.27290676807017    3.44896519388252
C         1.15107188108351    0.01823557244505    2.28995008337510
C         2.49997396825394    0.23473764354920    1.69244422023910
C         0.10341278895613    1.03201558520456    2.36716717202221
C         0.30594914470249    2.44551631338890    1.89021863757545
C        -0.81535812072416    2.99315417369429    0.99979578584549
C        -0.44164203064480    4.38698063732033    0.50221982680498
C        -0.20334267245462    5.32931544770537    1.68013926026675
C         0.89167579137217    4.78098149149506    2.59168286482352
C         0.53221671337193    3.38282606097290    3.08804556488025
H        -3.02096219083590    0.56659517886301    3.66136973275901
H        -2.32174309448232    2.14672958670903    3.26425326315062
H        -1.96165298764653    1.37405374007518    4.80631004713101
H        -1.07356516041944   -2.73156977066230    4.42512311868777
H        -1.03838719601380   -1.37839941392019    5.55246639546828
H        -2.39304609480882   -1.55435150820909    4.43963000894744
H         0.98513522123501   -3.16862876921425    3.58271642317245
H         2.35221400488447   -2.47618773795231    2.70753927194339
H         2.07712853014458   -2.04867627955533    4.39641779020733
H         3.07366498770063   -0.68715038170400    1.67897779004009
H         2.41660783572857    0.60886937321204    0.67377530252259
H         3.04425877105961    0.97174027489590    2.28298058042702
H         1.21709786319188    2.45583966977252    1.28484864448699
H        -1.74963927233769    3.06743790338393    1.55714283747178
H        -0.95915436249550    2.31986157683423    0.15295039580193
H        -1.23873019796744    4.78040310211305   -0.13202520658305
H         0.46400822083032    4.32820575690368   -0.10549507990958
H        -1.12830958192496    5.44369124636359    2.25057029984908
H         0.08174597230389    6.31658451990164    1.31176235913447
H         1.03348621908899    5.44668901672934    3.44571496781954
H         1.83416951527059    4.74317223401261    2.04044469723098
H        -0.37102643828220    3.43718918635797    3.69626542654577
H         1.33697053997621    2.99424332101472    3.71468449795423
C        -5.24860625204540    2.41881604217818    0.39509381335201
O        -5.56831700001268    1.15126011615557   -0.16204730057835
C        -4.70269854379969    0.15165069204113   -0.07735888815001
C        -3.46855169989597    0.19667607083217    0.57568728850553
N        -2.63461905599251   -0.83750532856685    0.61893801908750
C        -2.97286435204852   -1.99370074280142    0.00249880640273
C        -1.95614398752948   -2.99685647813557    0.04282426783410
N        -0.83442411229358   -2.67125934933467    0.60410998783295
C         0.21525665105616   -3.59915348351462    0.65575605354236
C        -0.00713850977419   -4.89975319636830    1.11103546556007
C         1.03554542517066   -5.80546592745163    1.15578883728276
C         2.28881003290684   -5.40311373999690    0.72334159024546
F         3.30527181565145   -6.28769698903568    0.75722187837295
C         2.53111293525310   -4.11809378718911    0.26355602112384
C         1.48978049559820   -3.21048727395195    0.24206276420756
C        -4.19995654319231   -2.13832836532846   -0.65406441245196
C        -5.06365362380889   -1.07023263092554   -0.69160908771815
Br       -6.74800869666451   -1.18092037670934   -1.56341172617136
H        -4.32961382674681    2.81524477434105   -0.04092780126155
H        -6.08554061539453    3.06339121714780    0.13589079463580
H        -5.16031265491222    2.35402300504353    1.48125951523442
H        -3.13852089683586    1.09733994316720    1.06848232954076
H        -2.10288268241705   -3.96366287979709   -0.42394314826767
H        -0.98823746240411   -5.18995571109114    1.45300676061004
H         0.88826876930848   -6.81157485842428    1.51420743013261
H         3.51980847750120   -3.84742636498241   -0.07104499256036
H         1.63857913462712   -2.20779737522922   -0.12857731842048
H        -4.45143730406313   -3.07003708328398   -1.13392322495190
Cl       -0.13391186455810   -0.12324048865317   -0.89236872311771
