65
 energy: -120.711240370646 gnorm: 0.000288400854 xtb: 6.4.1 (afa7bdf)
Ir       -0.46495380755339   -0.86842421749198    1.45099568966326
C        -1.79889773717149    0.93087412255949    4.10418654790917
C        -0.62500331119847    0.32802170272309    3.42221376819103
C        -0.15639142883314   -1.00822721186386    3.66216411226923
C        -0.74281662089674   -1.95096734585541    4.65612360946349
C         1.11797022805665   -1.15438736045426    3.01246426015464
C         2.10363494082749   -2.24087076906912    3.26073848584922
C         1.37844260747758    0.04282702057984    2.27528074071736
C         2.67118323555088    0.37094211640134    1.61618826811380
C         0.28850635384426    0.96801211924828    2.53093603947854
C         0.31958846195642    2.39739649846844    2.18574581774038
C         0.23449667150060    3.34768600013738    3.20138731312407
C         0.31152408038739    4.68811250089541    2.87418830597688
F         0.23277055142919    5.60033889009694    3.86499410439376
C         0.46881769234994    5.13154991944465    1.57360886165261
C         0.55028855945633    4.16265487400373    0.58884625776429
F         0.70390718737990    4.55697070815410   -0.69228047712183
C         0.48297591680745    2.81130527601528    0.86586328764457
H        -2.02410573005325    1.91643841585944    3.71076106906323
H        -1.57452150774385    1.01623386755967    5.16817593304051
H        -2.67908065576773    0.29884545531787    4.01027339962389
H        -0.44408019802242   -2.97420055921015    4.44879656688235
H        -0.38326867082405   -1.68820944431927    5.65161123008660
H        -1.82721613881396   -1.88841749304518    4.66415174926332
H         2.69402188758349   -1.96770065756764    4.13652929097760
H         1.61842669807799   -3.19059713810461    3.46587779028283
H         2.78316308606128   -2.36061336594093    2.42233543160392
H         2.97905494989637   -0.42146998092352    0.93817430788265
H         2.60278376074781    1.30095751270989    1.06066872649168
H         3.44095943406496    0.47502776056964    2.38136082696732
H         0.13561930441320    3.05973559328372    4.23479994257071
H         0.52516220936047    6.18110141754620    1.33838463767704
H         0.52476219534060    2.09574289952247    0.05971320946990
C        -6.74126475760982    0.80023223059592   -0.54343833955328
O        -5.40606254694595    0.89351233265626   -0.06294863761731
C        -4.67270416507532   -0.20016139472120    0.06536653699820
C        -5.06083749779694   -1.50981741341751   -0.23647593356442
C        -4.14570018763047   -2.52873380659551   -0.07305748841967
C        -2.87038466640563   -2.24888073325698    0.41683263013423
C        -1.81989554693964   -3.21193203619634    0.49106224170732
N        -0.64665177838555   -2.80017971255923    0.85168641544246
C         0.43609083676148   -3.69447492071911    0.83880018581250
C         0.35545275607102   -4.92511017492651    1.49016179897944
C         1.42956638192712   -5.79438329756154    1.45424854140849
C         2.57812841562574   -5.44141639384837    0.75412717582931
C         3.74604912880335   -6.38790065946163    0.73783028799862
F         4.49564424038885   -6.28118930239320    1.85658207941866
F         4.58158783340543   -6.17895840884518   -0.29054511282798
F         3.36826094548267   -7.67612150749190    0.66960244068025
C         2.66409687114975   -4.21558258098355    0.10298954237830
C         1.59649622530329   -3.33985081299707    0.15244345420913
N        -2.50371275444645   -0.98533244854036    0.77206329101965
C        -3.36325439987816   -0.00629451197082    0.56588422263561
Br       -2.86030788318565    1.77343935045637    0.91156072118038
H        -7.35107247719724    0.18090766519680    0.11707723164026
H        -7.11707866314485    1.82087774553258   -0.53958910649011
H        -6.76262116388143    0.40461606240562   -1.56092067840112
H        -6.04860929535047   -1.71940048558106   -0.61315205208780
H        -4.40442039448179   -3.54281996615971   -0.33128466617493
H        -1.98943800292792   -4.23445626543974    0.17229782040101
H        -0.53576475791758   -5.19105851867183    2.03668832667324
H         1.37675631657710   -6.74694301841603    1.95824696071277
H         3.55790064693205   -3.95401796829674   -0.44153353018458
H         1.63429805182907   -2.39175275834189   -0.36169243883839
Cl       -0.04715591691943   -0.30566741693089   -0.82756502589158
