85
 energy: -131.954457145759 gnorm: 0.000485167551 xtb: 6.4.1 (afa7bdf)
Ir        0.09547839246565   -0.60464435433647    1.71142420906456
C        -1.26580634949288    1.01419227170043    4.36897926243364
C        -0.03764030796067    0.55896460088610    3.65800899640260
C         0.60590012363953   -0.70313722113136    3.86987783351213
C         1.85747460082707   -0.68914422888519    3.14919945873137
C         2.97696116665465   -1.65127956737654    3.35561600486756
C         1.93951516239629    0.52954569601661    2.42684887809624
C         0.75193856474336    1.30788161199218    2.72616035121701
C         0.59467269758160    2.73170839488052    2.39741332832975
C         0.37574815874971    3.65891755157976    3.41605924708034
C         0.26454216891595    5.00381182561634    3.12609215638910
C         0.36807323767368    5.46578668172065    1.81487491637089
C         0.24942228910721    6.89938970424117    1.51037509388286
C         1.08905413443192    7.49666094081725    0.57207675214243
C         0.97988794712511    8.84536643058987    0.28722904593100
C         0.02659184016263    9.61872504663942    0.92990185334490
C        -0.81508668302312    9.03491747486457    1.86266522532982
C        -0.70304609912263    7.68773962206431    2.15349739506737
C         0.58853340891929    4.53537295704738    0.80005281063263
C         0.70391697051701    3.18962747911097    1.08386803506243
C         3.12958337036995    1.01139611619587    1.67229912916303
C         0.21600634089729   -1.71317928059040    4.89668531318328
H        -1.00834702179582    1.26031291920196    5.39989612992289
H        -2.01634880333875    0.22753513247128    4.39746740521956
H        -1.69346348932692    1.89314383190434    3.89559349361580
H         3.51803650046941   -1.35945613538338    4.25710642447733
H         3.67200334508120   -1.62825603772265    2.52214406778018
H         2.61841838248338   -2.66783349305914    3.49461282355973
H         0.32423940531925    3.32856010474439    4.44165693984577
H         0.11989193938740    5.71061844434688    3.92932753924769
H         1.84665745247596    6.90467912524672    0.07925445420448
H         1.64194179999493    9.29646146239215   -0.43785211077477
H        -0.05877638883179   10.67186529476968    0.70546662491606
H        -1.56230485560507    9.63301046196813    2.36393213900089
H        -1.37344581498960    7.23853334397185    2.87153892346494
H         0.65171538576115    4.86828811355528   -0.22493855529713
H         0.84454359666204    2.47964686490953    0.28234397734994
H         3.24470569026420    0.46188435360693    0.73939525784763
H         3.02825850586684    2.06719445311661    1.43651938093721
H         4.02882654459850    0.86095574897455    2.26731923049056
H        -0.86232919285511   -1.74769450175613    5.02478722890831
H         0.57611024975966   -2.70279021847615    4.62754517902983
H         0.66254742646425   -1.44059114754142    5.85377249124488
C        -7.47289405815260    4.66971013207812    0.34942251568510
C        -6.87019911269991    3.27453583668111    0.39553601351993
O        -5.49428253218136    3.40971432864314    0.73620451998697
C        -4.71457140258667    2.32768600808943    0.81488682200696
C        -3.35071207982398    2.58572066629141    1.11349121418265
C        -2.45160602855097    1.57300091855010    1.24016906269829
C        -2.83673173598771    0.22658857241351    1.06556722794890
N        -1.93831679043366   -0.77337525359665    1.19322047148904
C        -2.30838315678654   -2.02425666052018    0.87138796495242
C        -1.26021966216283   -2.98945318584989    0.88729204126350
N        -0.06686789208681   -2.59182487611077    1.20801446732201
C         0.97092495256958   -3.53105461765225    1.23570721053136
C         0.76436538994894   -4.81356841080575    1.75687691449500
C         1.78759824329954   -5.75546023473422    1.75671117997652
O         1.67999119728987   -7.00703033766561    2.24231151646635
C         0.43896682008557   -7.44349108460000    2.76926682490413
C         3.03647692415308   -5.41101267749124    1.21987265273069
C         3.25499539187901   -4.14851964566737    0.71519963738952
C         2.23264511203998   -3.21510621340934    0.73699481223780
F         2.46601418177810   -1.97632929192384    0.26344548980379
C        -3.63126475204978   -2.35550426268559    0.50940560158549
C        -4.57661770277938   -1.37409462857691    0.46314575124066
C        -4.19824999629484   -0.03619764178762    0.71732336926293
C        -5.11536791742803    1.02041542351322    0.61651659081009
H        -6.95726207204508    5.27485614198767   -0.39126676348033
H        -8.52434158312705    4.60529414063965    0.08616842877929
H        -7.37742561163108    5.15104936444879    1.31864441114349
H        -7.37843960366755    2.66268416955089    1.15101512507682
H        -6.96064305955114    2.78698908489256   -0.58297073187390
H        -3.04634107591613    3.61389158256699    1.22455823938345
H        -1.41427080807040    1.79417353378344    1.41845142731469
H        -1.45533538046139   -4.01088172126804    0.58133547791661
H        -0.19749657702039   -5.04283824224042    2.18543651998459
H         0.14755323436249   -6.85183685891056    3.64078619223351
H        -0.34625153456718   -7.40784497143719    2.00984813926541
H         0.60201807633710   -8.47562997317591    3.07164076497070
H         3.81801059027621   -6.15222854030804    1.21994791415729
H         4.21114777810933   -3.87084821217350    0.30241051137229
H        -3.86813848281010   -3.38108890214828    0.27888551966976
H        -5.60183534059957   -1.59668998836025    0.21142635518423
H        -6.13469980939158    0.77926512878431    0.36152654212347
Cl        0.27682007402963   -0.02148847491532   -0.59540028698980
