74
 energy: -105.529924379418 gnorm: 0.000512140292 xtb: 6.4.1 (afa7bdf)
Ir       -0.48038556672573   -0.76424648708289    1.46381331024366
C        -1.89077669041932    1.22409687022785    3.88511218957450
C        -0.69961913956597    0.52654248131718    3.31983232070060
C        -0.35729224005703   -0.83075150755806    3.67729061767005
C        -1.10071507599831   -1.66646578575025    4.66433387350935
C         0.96738403655263   -1.10029858377446    3.18840881689317
C         1.79364402595703   -2.28175395258194    3.56407856342128
C         1.37729702956488    0.01933695342006    2.41644771365189
C         2.72960679595379    0.22809629755672    1.82036156531772
C         0.34189940270144    1.04492100475397    2.50587751133911
C         0.55790799874629    2.45816307763102    2.03574597637871
C        -0.54956805658024    3.01728039936964    1.13574113843484
C        -0.15846041848232    4.40903932513284    0.64620717807333
C         0.07461533954975    5.34692112560414    1.82835659603803
C         1.15457360907929    4.78771131508016    2.75089979066357
C         0.77848178977254    3.39076023479215    3.23767658631104
H        -2.77584212620182    0.59336479167646    3.83403887875083
H        -2.09477052906358    2.16148405572067    3.38068458607177
H        -1.69825529730869    1.43591094336824    4.93769588688742
H        -0.87451221132910   -2.72091385989211    4.53339547872897
H        -0.80356580159266   -1.37964719780962    5.67390962899121
H        -2.17393883640125   -1.52247501442100    4.57524598502931
H         1.18336327771894   -3.17362376987459    3.67949459416990
H         2.56223744951397   -2.48403067531344    2.82424050055890
H         2.28051696622479   -2.07664563359301    4.51822247206419
H         3.29265201955775   -0.70000416510645    1.79906319265755
H         2.65123116343332    0.61073322433267    0.80453390847103
H         3.28261257996205    0.95413853829532    2.41636561960977
H         1.47534757586663    2.46511966790879    1.43961214279727
H        -1.49163667556524    3.09392177829498    1.67906100685214
H        -0.69311796682004    2.34965520282969    0.28490480475871
H        -0.94458515613315    4.80939854799696    0.00287511897586
H         0.75399462845580    4.34372796768752    0.04892680276622
H        -0.85586116003717    5.46573475928070    2.38862376607920
H         0.37111145429366    6.33336427516910    1.46602917432380
H         1.29155815828603    5.45000148947622    3.60854067989495
H         2.10317558076031    4.74413200698780    2.21056249890844
H        -0.13170028590056    3.45017182868947    3.83483121635407
H         1.57251203178840    2.99362744429790    3.87313075312964
C         3.75572639703245   -6.28849970875970    0.73242551331499
C         2.60992296159621   -5.32993589957123    0.76017197417230
C         2.77522054334314   -4.01395449559060    0.33329933952049
C         1.72098354600105   -3.12390466010531    0.33946052584849
C         0.45746488169686   -3.54523946841474    0.75383821481101
N        -0.61135812570439   -2.64322888141414    0.72998425046747
C        -1.74726707181698   -2.99337717136237    0.21003533784896
C        -2.78482021455680   -2.01352530006836    0.20892855395514
C        -4.04334632207922   -2.17854118872744   -0.38006984813120
C        -4.94048515202020   -1.13745861546003   -0.36503932124810
C        -4.56922796168219    0.07743840590426    0.23640644543665
C        -5.45303361855071    1.21140191401492    0.28159321940435
C        -6.72435302274945    1.40087544118259   -0.22078284341290
C        -7.09371812998943    2.71575979799860    0.11956110094338
C        -6.03293073598418    3.23798916616273    0.80413834825478
O        -5.04472917394174    2.34468650898627    0.90648433249804
C        -3.29315246450956    0.16058843343198    0.80780814066917
N        -2.43509053570106   -0.84522508688591    0.80694310965577
C         0.27852136840827   -4.86144592072032    1.18110568922451
C         1.34884898242697   -5.73324915978051    1.19083027456522
H         3.59984338471103   -7.10774387160557    1.42920171019322
H         3.85423808465720   -6.71052690068156   -0.26822889799732
H         4.69010049000328   -5.78684219601771    0.97257395007706
H         3.74495947822179   -3.68611391728009   -0.01050063637075
H         1.84484266118537   -2.11149535199887   -0.01279543044422
H        -1.88948147073873   -3.96510269087482   -0.24785842596675
H        -4.28779292650305   -3.11911643601842   -0.84613847338148
H        -5.91394796076113   -1.24639035636622   -0.81361692865507
H        -7.31784101977793    0.69657892107871   -0.76538841391972
H        -8.01709439859966    3.20604724637314   -0.10900015900304
H        -5.87629828034225    4.20090026478732    1.24876316958114
H        -2.97603512174274    1.08304511924174    1.26982345777280
H        -0.69030961208752   -5.18313569620768    1.53243736674058
H         1.20352538199938   -6.74609517948278    1.53513454346374
Cl        0.02072047897473   -0.07571403994001   -0.77434563495393
