66
 energy: -105.487334285137 gnorm: 0.000440065128 xtb: 6.4.1 (afa7bdf)
Ir       -0.42258531534412   -1.06805002171823    1.73465417600674
C        -1.75130012949138    0.92718571509951    4.26897666646175
C        -0.60031173139261    0.22187453882104    3.64610703389608
C        -0.23087241304303   -1.13658391046925    3.96520912793479
C        -0.92655018924648   -1.97367009029391    4.98361477507693
C         1.06997807772070   -1.38735616002827    3.40122700641389
C         2.00379525340482   -2.49090994025076    3.76040690368353
C         1.43578265891718   -0.23705614604949    2.63643437747276
C         2.75787077959680    0.01103835216625    2.00293426595529
C         0.40041746981679    0.76443528012704    2.79423364441640
C         0.57387405878459    2.18097809821558    2.36460240751526
H        -1.56583661950001    1.01099477831316    5.34003915596539
H        -2.67748022520925    0.37309768684004    4.13686758366672
H        -1.88163762841570    1.92135553137718    3.85696741293519
H        -2.00352422527717   -1.84233159994889    4.92691085913063
H        -0.69178582877987   -3.02685431107582    4.86321390819116
H        -0.60195208250937   -1.66475561373033    5.97815817903760
H         1.50357906813560   -3.27326017130182    4.31970738078694
H         2.47027300755400   -2.92697804377443    2.88036198686524
H         2.79483191977174   -2.07546134239728    4.38575698953928
H         2.64010692936430    0.52845447857264    1.05343280291804
H         3.29541063565973   -0.91727698914743    1.83490593828652
H         3.35101574736262    0.64668566930838    2.66178125282387
H        -0.31780646605168    2.76829341180113    2.55591512292109
H         0.81081026867472    2.23112999573366    1.30414919307495
H         1.40786220266108    2.61668324397660    2.91491305189964
C         1.61096521838637   -2.38316178478197   -3.23607329857162
O         1.80483839816740   -3.07550582092840   -2.00492829033613
C         0.71511328889630   -3.44011002222531   -1.34604475577102
O        -0.41666788218646   -3.27431450897232   -1.74836309673793
C         1.04448567770686   -4.15877165011529   -0.07908900190788
C         2.08317786696113   -5.08198389428249   -0.07896273983101
C         2.34064946566485   -5.85853495901950    1.04995112446487
O         3.30870403963348   -6.78767529228972    1.14333433074313
C         4.14447735180346   -7.03338179661777    0.02645423470059
C         1.53512645827024   -5.69104352900583    2.18439957690198
C         0.53437899463116   -4.74670471706681    2.20172238373512
C         0.28327407395894   -3.96125068475332    1.07893716265700
N        -0.72578391666887   -2.97614864995347    1.08960391129344
C        -1.83472843535277   -3.24562683663501    0.48044083868418
C        -2.76050947842983   -2.17540852980705    0.28935899524787
C        -3.91536294594914   -2.29682126490895   -0.48764282522960
C        -4.67687867302774   -1.17626934701954   -0.73247595873178
C        -4.23868899915294    0.05187283777230   -0.22184767170968
C        -5.01676719902571    1.21384183483965   -0.43225026031322
N        -5.67084359830188    2.13962093942953   -0.60395512694723
C        -3.05494783978998    0.10559059146871    0.52835381629998
S        -2.43137601036399    1.64238207390570    1.12569240764459
C        -2.08341894576885    2.48627529837396   -0.44773458454004
N        -2.36124812829432   -0.99330237864103    0.82211538043049
H         2.60319601167792   -2.19786525162117   -3.63667035896977
H         1.01826238077385   -2.99036953227112   -3.92216889887148
H         1.08857308388060   -1.44317078362985   -3.04901925738142
H         2.66115989133306   -5.19481617277811   -0.98095760900462
H         4.70766405522008   -6.13916580066801   -0.25197438818847
H         4.83366983142285   -7.81182875188048    0.34675018827760
H         3.56587871002947   -7.38940686351113   -0.82993563746921
H         1.72134473590918   -6.31888171293363    3.04028542876294
H        -0.09094065451111   -4.62971670999777    3.07156053651761
H        -2.03437573838585   -4.22659601486340    0.06791252410289
H        -4.18250704797263   -3.25728763744682   -0.89544239113701
H        -5.58819887094378   -1.22502692649517   -1.30809078578374
H        -2.99535127022436    2.63606369420266   -1.01531081223989
H        -1.65717958942514    3.44553910795068   -0.17293112297070
H        -1.35736582262383    1.89273240347685   -0.99571829922884
Cl        0.28313028885180   -0.43787339615320   -0.44292987122034
