89
 energy: -124.594300751048 gnorm: 0.000495038647 xtb: 6.4.1 (afa7bdf)
Ir       -0.49048467745432   -0.52234196157162    1.73921838982815
C        -2.31857124727720    1.18200021907137    4.12021780667990
C        -1.03938259621296    0.54184539623136    3.70443424650206
C        -0.70109323184060   -0.83614178495783    3.93459756136021
C         0.69553589018518   -1.00363069021210    3.62667955023745
C         1.53790452254066   -2.14726986667899    4.07477955604104
C         1.16767602145625    0.20758636221522    3.05053174601658
C         0.08728385156003    1.18289965499735    3.12066462430955
C         0.26600817019715    2.63515714526820    2.95798797438163
C         0.07453507064432    3.46097615233325    4.06573158101633
C         0.29321115141995    4.82052683769896    3.97168814271430
C         0.70055535125318    5.39945689730375    2.77022861384255
C         0.94103012699541    6.84706619381996    2.67418682922369
C         2.01914218966577    7.33839756948408    1.93989727486188
C         2.25069351179357    8.69879243276189    1.85275083742962
C         1.40695016448635    9.59225518227865    2.49272794977581
C         0.33150083146474    9.11545181774616    3.22462066986274
C         0.10172090134766    7.75506477224156    3.31736437507009
C         0.88052711353667    4.57029594658313    1.66437923227688
C         0.67197896694851    3.20828193108271    1.75570915751638
C         2.58600295105274    0.52988504889491    2.72382021072670
C        -1.54733502159223   -1.80884235587669    4.68582143307018
H        -2.36172172574688    1.20800409846598    5.20966082020778
H        -3.17954163269869    0.61603714006185    3.77052694456441
H        -2.38590934477485    2.19862363894755    3.74380997753208
H         1.85268793968294   -1.95028961991388    5.10114851275420
H         2.43431570215732   -2.24436169626877    3.46918982872814
H         0.98696063587240   -3.08429975203719    4.07641806380028
H        -0.21692209959174    3.02939169977124    5.01140350380016
H         0.17029164186696    5.44078754744715    4.84705906085946
H         2.69358443051386    6.64939773607189    1.45234612090417
H         3.09418159365562    9.06472368787956    1.28509082930425
H         1.58794138685992   10.65479864133472    2.42226628861029
H        -0.33074757325777    9.80791973444869    3.72419967791444
H        -0.74685147767670    7.39519229782819    3.88059074783218
H         1.17266933773976    4.99866658189633    0.71708245719645
H         0.80304891561854    2.58699410725674    0.88277822023981
H         3.09901549485012   -0.33255974644035    2.30611732688449
H         2.63965649301221    1.34908366708576    2.01241476659747
H         3.10525411683858    0.83357907187014    3.63382259792592
H        -2.60294084364904   -1.63135135966229    4.49944296458173
H        -1.30915153463780   -2.83358207233464    4.41357563276778
H        -1.36740771875048   -1.69271813978090    5.75534583840702
C        -5.77404619122280    5.16297422138776    2.07709755048402
C        -5.64561234683848    4.96827610396315    0.56983412067287
O        -5.90463627888984    3.62566916955020    0.17595387029560
C        -4.99333174929096    2.65872796590604    0.35571453766458
C        -3.67158372983654    2.85393771155734    0.82157415436792
C        -2.81784689047333    1.79784862075288    0.97401039302907
C        -3.21551686565800    0.48203232012517    0.66851618264900
N        -2.36964452834107   -0.55918404583306    0.83507000163055
C        -2.72669839577956   -1.77279891656619    0.39396382737967
C        -1.68317758695549   -2.75214453707952    0.45018208086070
N        -0.53291085932675   -2.39082374567136    0.90338926176418
C         0.56972813862667   -3.31747265768963    0.85304400835183
C         1.73392084365166   -2.82136075573750   -0.03655223287106
C         3.06765769300880   -3.33125662870429    0.53170704943347
C         4.29045139287662   -2.67833227825311   -0.10631586224783
C         1.57328414518129   -3.27287938748509   -1.49329159412705
C         0.32341094479145   -2.74693647722517   -2.19281343273322
C        -4.00413585847735   -2.03992017734500   -0.13954981883448
C        -4.91110446454525   -1.02584121100001   -0.23449067762212
C        -4.53206188234451    0.28324291299389    0.14583359792675
C        -5.39294480440494    1.37501081578418    0.01674742868574
H        -5.63467932244940    6.21282041203758    2.31755712182495
H        -5.03276207327135    4.57554303204526    2.61310019674013
H        -6.76324769917432    4.85574165608201    2.40687602801159
H        -6.41466961080132    5.54658640141284    0.05221622354758
H        -4.66481072871878    5.29533322510254    0.20844350470337
H        -3.31456287804571    3.84507152094861    1.05012598541004
H        -1.80219529141480    1.97338751165777    1.29071013588925
H        -1.86124868905738   -3.75287149236522    0.07003878863721
H         0.22457203965762   -4.29191538015969    0.49380872901100
H         0.94395717558203   -3.43795828996757    1.87084508397659
H         1.73765425720450   -1.72752912927760   -0.00803890170393
H         3.10107037032616   -3.12738268285411    1.60316907330266
H         3.12616717091259   -4.41400748965468    0.40224288449942
H         4.41825613340408   -2.98939012885515   -1.13922361506283
H         5.18897037184227   -2.96137362860866    0.43784256878061
H         4.20058034485743   -1.59453806298131   -0.08411431111435
H         2.44089183239051   -2.91359265470108   -2.04683323769785
H         1.58661331561254   -4.36515185087308   -1.53658450549806
H        -0.57133550514568   -3.27252715297696   -1.87286137709476
H         0.19495037908125   -1.68635556670845   -1.99409964015319
H         0.41938788557404   -2.88167747422539   -3.26819556322971
H        -4.23883349092454   -3.04226943027850   -0.45756479610976
H        -5.90577880529786   -1.19615722231396   -0.61542336231358
H        -6.38851649853055    1.22810599037187   -0.37016769572368
Cl        0.24862484055447    0.41759769905599   -0.32438270956324
