70
 energy: -106.397920115643 gnorm: 0.000748895353 xtb: 6.4.1 (afa7bdf)
Ir       -0.53439407356635   -0.84157056552258    1.43341751535878
C        -1.86488665928610    1.10575159357412    3.92078096795673
C        -0.68797221939457    0.44176656356736    3.29102209872757
C        -0.27022918834921   -0.88946981048253    3.64387354333145
C        -0.91471711560951   -1.74198779466432    4.68273365623959
C         1.02512474860550   -1.12272313242746    3.05832642737803
C         1.91559940649895   -2.26977871612211    3.38881543365999
C         1.35123634600323    0.00504006221731    2.26073363526171
C         2.64848654701534    0.24845550370134    1.56729075101523
C         0.28034920505491    0.98656272917841    2.39349817188556
C         0.41697961859759    2.40033197859785    1.89653439161589
C        -0.77208902840224    2.91849616437097    1.08055977908284
C        -0.45894723259362    4.31399206681897    0.54718018861179
C        -0.15611800842231    5.27159836276746    1.69740420838981
C         1.00595373614854    4.74960360287382    2.53888904622403
C         0.70264452150228    3.35129085399104    3.07045719414729
H        -2.74119802081933    0.46183676375464    3.89461746785606
H        -2.10324873610660    2.05075165828054    3.44767163582007
H        -1.62914485266639    1.29674161088339    4.96827169120400
H        -0.67079798076626   -2.79041306898695    4.53782712630571
H        -0.54853282658232   -1.44382052748277    5.66583792352571
H        -1.99447744533831   -1.62507588262901    4.67576048349455
H         1.34662733733995   -3.17605609087017    3.57776119860656
H         2.63112109113901   -2.46459832482447    2.59516554440903
H         2.47213801435921   -2.02575475190346    4.29444432337240
H         3.24480981999458   -0.65782717118921    1.52493006648936
H         2.48467202763577    0.60448658485627    0.55213031508836
H         3.21308668115160    1.00799919822051    2.10787920477060
H         1.28575325731513    2.42700678888420    1.23207157774625
H        -1.66857705617675    2.97978784184455    1.69734163978541
H        -0.96189313920442    2.23629719004154    0.25059595762305
H        -1.30633995466971    4.68613426239260   -0.03195486658573
H         0.40277494875586    4.26540778686774   -0.12209289503304
H        -1.04237695050692    5.37720024702718    2.32771167495237
H         0.08787280975275    6.25972586206876    1.30243199235661
H         1.19315578285765    5.42615751712437    3.37519503911373
H         1.91041617884718    4.72088278585550    1.92663676092891
H        -0.16148781473952    3.39751160328505    3.73364916962513
H         1.55141252815238    2.98127182698409    3.64912295267926
C        -7.24844945250345   -0.46109844915322   -0.83508216970395
O        -6.25001567225438   -1.47318124024793   -0.84631985371988
C        -5.06550313042871   -1.23670813543346   -0.30071976537459
C        -4.66364748406839   -0.03660352473443    0.30875910369931
C        -3.39756528135627    0.06031878665826    0.84546859623303
N        -2.51445024431067   -0.93486109207756    0.82832597903793
C        -2.87717230701624   -2.09771915796417    0.22332017724874
C        -1.83628665760299   -3.08418328682057    0.19941546560384
N        -0.69993321624805   -2.74404967349764    0.71691730230942
C         0.37001484925280   -3.64493348007914    0.72529577315336
C         1.59389385151856   -3.26012394413986    0.17222587205210
C         2.65472282784165   -4.14089703576047    0.17457401120628
C         2.49917284638555   -5.40046288552587    0.74991615198863
N         3.60592492295678   -6.31291334180595    0.76167710172161
O         3.45265343982911   -7.39119425984580    1.30581892984065
O         4.64234548449112   -5.96203758928736    0.22740969906989
C         1.28585163700942   -5.78838385729504    1.31236634023882
C         0.21981350494992   -4.91320850679825    1.29335799474335
C        -4.12945483914021   -2.28002312245101   -0.33827473604926
H        -6.92309223357569    0.41731610081904   -1.39585999862265
H        -7.50983210092348   -0.18081368018772    0.18728483915928
H        -8.11277386045786   -0.90498508613401   -1.32380312199860
H        -5.32068693046869    0.81461626028815    0.36621060501339
H        -3.07746732408616    0.98046504013794    1.30956183055399
H        -1.98558677865109   -4.04703943371353   -0.27539119170265
H         1.68333747198126   -2.28244127311733   -0.27611464224534
H         3.60589468189406   -3.87383674223604   -0.25928661045348
H         1.19588288423186   -6.77084588682955    1.74927141174894
H        -0.72457036053854   -5.19688716025585    1.73062587214292
H        -4.39289586031693   -3.21015523363035   -0.81369141329910
Cl       -0.08798897206751   -0.21905228182821   -0.82904454663668
