66
 energy: -101.724439206657 gnorm: 0.000820872497 xtb: 6.4.1 (afa7bdf)
Ir       -0.13934221577256    0.07564305499574    1.98417224939112
C        -2.32739525159729    2.42936185592945    3.08874690467199
C        -1.04592829649358    1.67206545482488    3.23504061979669
C        -0.84793232978677    0.51369344365650    4.06417811732074
C        -1.87941040141750   -0.17725777534436    4.88700796769162
C         0.55399877616209    0.23816666658137    4.12307434985580
C         1.18246178260381   -0.74198794105505    5.05373113621594
C         1.23757119264139    1.23258865756958    3.33410583628384
C         2.71918022949620    1.39658533525791    3.25952511942465
C         0.25252304414351    2.15395586147959    2.84403029140120
C         0.50679443694389    3.45250393430017    2.21323319439148
C         1.48702029152056    4.29035151386999    2.74740188178614
C         1.68815847442770    5.53707368796792    2.18748285288718
F         2.63566884985136    6.33680331365571    2.71901353121939
C         0.95836767688453    5.99825834537502    1.10648141567694
C        -0.00959002342638    5.14764545679786    0.60212679672210
F        -0.74769475673551    5.56101568807339   -0.44830452619681
C        -0.25677367546257    3.89776136648993    1.13541720574293
H        -2.75395775027163    2.32051735422418    2.09259453646813
H        -2.14420587179685    3.49106583669713    3.24622153503850
H        -3.05708782053222    2.09097678314712    3.81944285701220
H        -1.63030877158044   -1.22564865484798    5.02541496290539
H        -1.91084128489837    0.29244757362119    5.87156730334379
H        -2.86932631532398   -0.10462951963783    4.44632195269002
H         2.26043749645681   -0.76466807898942    4.93279273391607
H         0.96075857586871   -0.43912542870263    6.07749643278904
H         0.78151549490861   -1.74299542480076    4.91203845172304
H         3.21133065303105    0.43301228919766    3.16055323934036
H         2.99826308578799    2.02278405698670    2.41648358641258
H         3.08375550843058    1.86161625434769    4.17602991034768
H         2.07038346621310    4.00253271148320    3.60546731107448
H         1.13383552880327    6.97160850539631    0.67968678733877
H        -1.00170444542871    3.26827396485686    0.67975324337732
C         2.58422542231560   -4.66601433755373    3.48660911085370
C         2.22998253724426   -3.88532095301902    2.22259462669361
C         2.90775226261111   -2.51082390632365    2.15100429050826
C         4.41513116829263   -2.66003909449284    1.90387038659276
C         5.22098933241092   -1.37583696314758    2.07066820940459
C         2.30041242775125   -1.64447355827167    1.01762586876157
N         0.87304153524384   -1.49482094977647    1.11272878285183
C         0.13051884285102   -2.30552268259548    0.43755920590435
C        -1.29288226866090   -2.14520648772201    0.51382934184568
C        -2.21729879364451   -2.94635687941594   -0.16038863955440
C        -3.56502715747742   -2.67647963205627   -0.03849328428896
C        -3.94636469706241   -1.60015785856350    0.76118379652331
Br       -5.78234723836395   -1.15837909618685    1.00082225013076
C        -2.98035136034315   -0.83768439877355    1.40308128271467
N        -1.68594059785543   -1.10521427761963    1.28853887759393
H         3.62922477655216   -4.96294540142469    3.49668345302936
H         1.98318119868910   -5.57028431338586    3.54133467885537
H         2.38874976070418   -4.07144730565954    4.37556274862953
H         2.50959527671416   -4.47486254222833    1.34743991645763
H         1.14636803576355   -3.75308930125973    2.20938741792340
H         2.74933349548598   -2.00076729327552    3.10357818486377
H         4.57680045156274   -3.05896954846340    0.90054264979017
H         4.80323531487548   -3.39254054469767    2.61151946935324
H         6.27701785225747   -1.58775124567283    1.92114129688942
H         5.10464650214607   -0.97351856635954    3.07415912944329
H         4.93269620962570   -0.61863040086651    1.34646363874393
H         2.73992055233231   -0.64750349152128    1.05723197247938
H         2.55830110285611   -2.10597780297507    0.05926603072076
H         0.55423452116607   -3.06991832153923   -0.20529273106787
H        -1.87151284157497   -3.76277167894784   -0.77400265911155
H        -4.30472672421689   -3.27350628367363   -0.54802021115822
H        -3.27083713368614    0.00201063895691    2.01596671455333
Cl       -0.11826912030220    0.90189133503280   -0.24268259499179
