84
 energy: -126.926802570633 gnorm: 0.000302821739 xtb: 6.4.1 (afa7bdf)
Ir       -0.41449488447013   -0.59750227421459    1.61248377732616
C        -1.87527358602355    1.16594223693384    4.16852366862103
C        -0.65563868720408    0.54030581471201    3.58408625381005
C        -0.24115735115830   -0.81782735419734    3.81686544379556
C         1.08574445285808   -0.97244617532415    3.28091774532336
C         2.01218778232046   -2.10183505054216    3.56973281414513
C         1.42715258413233    0.22670330489706    2.59912726481061
C         0.34494145457148    1.18022751705740    2.79870341681561
C         0.45076120077206    2.62368613555626    2.53481041569449
C         0.35855498453559    3.51574421427747    3.60278387876889
C         0.52863818212852    4.86999951890921    3.39983606174820
C         0.79467285422632    5.37575795828517    2.12824150385272
C         1.00466008636727    6.81665743423066    1.92247841113568
C         2.01013743305927    7.26896703648010    1.07012718265801
C         2.22063482390803    8.62321001492725    0.88634939927554
C         1.42646005492581    9.54779342026386    1.54516650597397
C         0.42125894019609    9.10932088960781    2.39177054682763
C         0.21362940338866    7.75545380458084    2.58197645221541
C         0.86934152436498    4.48144106894259    1.06148271035373
C         0.70081997351395    3.12518242836514    1.25908525851223
C         2.77023092029125    0.54786053503564    2.03939970180456
C        -0.92250642579743   -1.77528157488122    4.73596133543267
H        -1.73577487657965    1.27242046047726    5.24484541930888
H        -2.75388793592792    0.54383801145567    4.01177706476962
H        -2.05561749093735    2.14796848853428    3.74095493555512
H         2.50058524653401   -1.90964363602274    4.52596885860564
H         2.78027091711753   -2.18704273367353    2.80702215979218
H         1.48514572332176   -3.04908775716702    3.64549392854802
H         0.18641387630440    3.14121995296447    4.60012281748766
H         0.48305165131813    5.54386279591390    4.24222080611974
H         2.64504545748119    6.55486910220701    0.56590959166558
H         3.00865895282982    8.96058221318249    0.22858824331432
H         1.59058006448576   10.60543596650289    1.39939458922893
H        -0.20281486249468    9.82669321024220    2.90504821831491
H        -0.58118629182546    7.42274034799212    3.23357012661316
H         1.04847771489103    4.85449960564220    0.06418584398325
H         0.74210630570604    2.44946828829041    0.41745589673216
H         3.13529130645677   -0.25705302191316    1.40564933295822
H         2.73775844790579    1.46474908156201    1.45829529654683
H         3.47644447757708    0.67918204714492    2.85999520446880
H        -2.00239654908978   -1.66381732624678    4.68720695670043
H        -0.65844641889745   -2.80196844635804    4.49685215096513
H        -0.60732396665459   -1.57497160787499    5.76076379184074
C         4.83038096398623   -9.21641082720384    2.31705282394455
O         4.83953153781136   -7.94797661544617    1.69149561385071
C         3.71471728165036   -7.19729823190771    1.69058227044221
C         2.49090041313973   -7.59425905711315    2.27339011715278
C         1.40552550482030   -6.76533169807708    2.23192397690495
C         1.47294718970438   -5.50021963944709    1.61101437212759
C         0.36879883183777   -4.63373776322793    1.56241727372092
C         0.48067206142944   -3.38727037244199    0.98105594227770
N        -0.59270003311658   -2.49763363773178    0.96296900797064
C        -1.78121386516620   -2.89518237358130    0.63059660412742
C        -2.81037950355382   -1.90302853248435    0.60692634532913
C        -4.13416897423131   -2.17824631958849    0.20873687011247
C        -5.03780779227461   -1.15634179197613    0.15500584060183
C        -4.61230054252855    0.16081578650373    0.43415889584618
C        -5.47688470858582    1.26788454378966    0.33020508082988
C        -5.01676725777659    2.53750268184137    0.55498479122546
C        -3.66797452059345    2.74825712764283    0.88177956399591
C        -2.80640917256106    1.69292041932966    1.01543388454996
C        -3.25289627602776    0.37340071716736    0.81299772165350
N        -2.40075076989161   -0.67241294584849    0.95130944896363
C         1.70887724775169   -2.97904688977380    0.40712571834075
C         2.77914857742904   -3.82085061891522    0.41150172963596
C         2.70496920348245   -5.09733444243772    1.02145741336349
C         3.80365424814858   -5.96186567731631    1.07351719664337
H         4.11835951701651   -9.89306582918702    1.83650520060614
H         4.60330494583705   -9.13308326054561    3.38346885606778
H         5.83845139352852   -9.60734607250694    2.19277565929875
H         2.40630497597707   -8.55499379608011    2.75526194843822
H         0.47434485755682   -7.07893661829844    2.67955027884871
H        -0.55842068868435   -4.93673350535152    2.02677816039051
H        -1.97474879633132   -3.91278439378170    0.31274353779662
H        -4.40559084160292   -3.19101567809797   -0.03931098599462
H        -6.06621760216665   -1.33241309598454   -0.12051083586756
H        -6.50561044188767    1.09323676469796    0.05460112169442
H        -5.68173849995633    3.38237654041744    0.46706524410949
H        -3.30676882686055    3.75461149171419    1.02430269895469
H        -1.76348109208039    1.86070921657189    1.23079834510164
H         1.75535378581803   -2.00791311193677   -0.06114244220585
H         3.70918289168883   -3.52305253816043   -0.04809840452783
H         4.74357936851880   -5.67034015657307    0.63227143942737
Cl        0.09777093831686    0.08174625461050   -0.61998030806453
