68
 energy: -99.506390921034 gnorm: 0.000686034305 xtb: 6.4.1 (afa7bdf)
Ir       -0.67519993025795   -0.79306660505291    1.42318915708396
C        -2.12145090575507    1.15170236349644    3.85501110159969
C        -0.92277983785382    0.46330342717879    3.29579960953697
C        -0.58507495043237   -0.89781616929683    3.64111383232994
C        -1.34793404700854   -1.74862163109594    4.59867009173296
C         0.74222544431716   -1.16421950514321    3.16064817422893
C         1.56510517391860   -2.34889350316292    3.53010141417408
C         1.16511336580607   -0.03152318951844    2.40938220662188
C         2.52363722152197    0.18102255334077    1.83148917921321
C         0.13014288631240    0.99439435409886    2.50117536292052
C         0.35277593272031    2.41534441880834    2.05669979006507
C        -0.75081869420747    2.99264435135093    1.16308808309013
C        -0.35681578049794    4.39246042198780    0.69893056017549
C        -0.12612003226534    5.30818313765466    1.89902290042048
C         0.95042984209469    4.73048301303214    2.81434564851742
C         0.57118515163335    3.32588591246711    3.27619626115957
H        -3.01118306144911    0.53313171574339    3.75581794229740
H        -2.29771150666496    2.11301703222028    3.38657170087107
H        -1.95513692686650    1.31650226588396    4.92038051095065
H        -1.11610641203264   -2.80039742280506    4.45792575318707
H        -1.07403225047190   -1.47566542406486    5.61855028993547
H        -2.41923339906198   -1.60569285683326    4.48764146713567
H         0.95237488089078   -3.23873436084006    3.64730828142468
H         2.33113268033080   -2.55191146131813    2.78779734766249
H         2.05601418980252   -2.14582091470386    4.48272785486590
H         3.08156652390226   -0.74972516445855    1.79526958853928
H         2.45713423434628    0.58663686970041    0.82381559250612
H         3.07438995164831    0.89055824218391    2.44904163084506
H         1.27205664459128    2.42941914814248    1.46393081357621
H        -1.69188660004440    3.06537862700451    1.70927733337274
H        -0.89102550225617    2.33828403624713    0.30112900028084
H        -1.14103771634322    4.80628034614331    0.06143189518340
H         0.55681111319050    4.33689808444673    0.10281970755510
H        -1.05804064786904    5.41990775838285    2.45857527314870
H         0.17376985124582    6.30002048470669    1.55542395221788
H         1.08604603714857    5.37715741084598    3.68381171672195
H         1.90042059292063    4.69507673659995    2.27592144126028
H        -0.34006086233398    3.37628945865746    3.87270555214787
H         1.36310403952228    2.91678021914433    3.90623361971436
C        -5.20683355549679    2.45148615565062    0.50359717541347
O        -5.53616487219164    1.19310096532460   -0.06739316535207
C        -4.67775676954510    0.18473958483063    0.01068206228078
C        -3.44522047712090    0.21410552386485    0.66661309762792
N        -2.61945513662770   -0.82688321605575    0.70048272825757
C        -2.96300382221646   -1.97275588160817    0.06916321841818
C        -1.94950000230645   -2.98080735253683    0.09948569827810
N        -0.82643404408952   -2.66346202242012    0.66115287281315
C         0.22057766117531   -3.59405506198878    0.71041521888947
C         1.49803202184835   -3.20507633342563    0.30979764363627
C         2.53242260206329   -4.12205531213824    0.33331185031896
C         2.30974501890874   -5.41696968450299    0.77757207834081
C         1.04243054450941   -5.79902011733509    1.19147013574468
C        -0.00539267393418   -4.89804831943082    1.15160394899123
C        -4.19027904969132   -2.10235712195211   -0.58963659837821
C        -5.04745800798069   -1.02841166389185   -0.61489993910716
Br       -6.73347586104382   -1.12016468757892   -1.48470952102150
H        -6.03741033057245    3.10605578607547    0.24900862701503
H        -5.12211930173607    2.37482945294337    1.58924509707765
H        -4.28304152625885    2.84447591415923    0.07472190275488
H        -3.10932639427730    1.10686654794655    1.16961634426239
H        -2.10115968121162   -3.94394823279683   -0.37324278820884
H         1.64965182084585   -2.19909018301966   -0.05053245875152
H         3.51639936934436   -3.82591834573952    0.00374467252336
H         3.12166588712440   -6.12686281575814    0.80279493266338
H         0.86905955185645   -6.80435185225010    1.54316537383432
H        -0.99052819138458   -5.18656793011685    1.48534465451906
H        -4.44745930099409   -3.02694838276502   -1.08032364431696
Cl       -0.12337617317358   -0.08029859466404   -0.79290685679121
