63
 energy: -90.606326557355 gnorm: 0.000505906939 xtb: 6.4.1 (afa7bdf)
Ir       -0.53155155110217   -0.96949037449630    1.48757914134810
C        -2.74702202853763    0.85548666913632    3.40768293701463
C        -1.42411595067241    0.19349137232255    3.23061322518530
C        -1.14962702787831   -1.17048266108928    3.61533229167829
C        -2.12960827982876   -2.10017614601376    4.24722464612145
C         0.27587638185805   -1.35475309590209    3.61698400481263
C         0.95752085593963   -2.50064775831793    4.28271959535493
C         0.86575628563788   -0.18059109910651    3.06830890684885
C         2.31596664383901    0.16393897087975    3.01171414642720
C        -0.19591523311859    0.79094312720503    2.84921323405853
C         0.05475430788003    2.22088811856496    2.50705469192703
H        -2.91131349180210    1.00933920895771    4.47520432191469
H        -3.55912412434804    0.23707123587116    3.03277336981458
H        -2.78682570575920    1.82041706726657    2.91302565552379
H        -3.12777395703858   -1.95257602034972    3.84443621209826
H        -1.83602340534214   -3.13592283335500    4.10059263843523
H        -2.16724033091702   -1.90831233029055    5.32040993311618
H         0.63526462401612   -3.45688395463070    3.87726297675521
H         2.03747199766856   -2.42175100454189    4.20858343558041
H         0.68831361371596   -2.48656122286784    5.33957348885125
H         2.54131883762043    0.71956740835908    2.10471054478978
H         2.94105174327259   -0.72269242273255    3.04170120478906
H         2.56665167264798    0.79534353070855    3.86489359906065
H        -0.87311136009809    2.77778649460179    2.41698478784666
H         0.60733477111080    2.30221711211471    1.57207896037516
H         0.65947105961147    2.67754325697477    3.29030596879039
Cl       -6.26258832134654    2.93577400263571   -0.83832524667288
C        -5.11012048318676    1.69259962901340   -0.48685751878745
C        -3.81657422428528    2.06090869157920   -0.07423794675957
C        -2.89526614762833    1.09953983982943    0.23497744141665
C        -3.21646265171949   -0.26846367670071    0.12597891742791
N        -2.29807321473877   -1.21456478141955    0.43064282498053
C        -2.55268565684125   -2.49823846687064    0.14002627082133
C        -1.41002831183550   -3.35509426587788    0.25551357428186
N        -0.29348660659284   -2.83472061126494    0.64434960901537
C         0.91662500344119   -3.63313565693604    0.48840349297955
C         2.15613839541429   -2.87090695178321    0.96640752977646
C         3.41967185825521   -3.43169159562245    0.31777842582625
C         3.42929118568446   -3.13459695297036   -1.18586376223762
C         2.00095727045016   -3.09648617747179   -1.73871842848290
C         1.10980085068932   -4.07558258073010   -0.98416585730303
C        -3.80416793176247   -2.92926191322784   -0.34168928432151
C        -4.79063863405462   -2.00648277956180   -0.54759965995043
C        -4.50953224123966   -0.63510163406133   -0.35065032055798
C        -5.45132195456536    0.37179415863593   -0.63133443216135
H        -3.56276114554887    3.10665899886813   -0.01259108838785
H        -1.88975377915165    1.36888935165344    0.51690598848543
H        -1.48174808942948   -4.38676803039309   -0.07167454770399
H         0.78634870208193   -4.53690972392244    1.09733125989951
H         2.05795276166478   -1.81995408678762    0.69277858504628
H         2.23941547759283   -2.94717130690936    2.04662154117467
H         3.46608927592319   -4.50843313050563    0.49162061132839
H         4.29988896125124   -2.99073824399472    0.78634085856278
H         3.91026195609974   -2.17433280119360   -1.37478102635856
H         4.01269790954394   -3.89873430119438   -1.70275189701430
H         1.58551063774371   -2.09332715452219   -1.64476170280120
H         2.00582218616640   -3.35057268596402   -2.79982748849259
H         1.57084504661413   -5.06361652050344   -0.99851605952792
H         0.14683385920533   -4.14784896959421   -1.48821466144520
H        -3.96141209507195   -3.97817261226234   -0.53273148506499
H        -5.77096610997496   -2.30157560171784   -0.88729087409112
H        -6.43346017525687    0.09178035985376   -0.97724701517887
Cl        0.45487608801522    0.07290653262176   -0.42064254622629
