62
 energy: -87.833584102019 gnorm: 0.000942730950 xtb: 6.4.1 (afa7bdf)
Ir        1.37803473085332   -0.95916356538578    1.88145829082538
C        -0.73954097110705    0.97506677358430    3.58902573660714
C         0.51809468581367    0.18622722305193    3.53743618886200
C         0.67492800338059   -1.16826451743264    3.98728330712956
C        -0.39838108433506   -2.00852138496646    4.59245070907116
C         2.06525838941570   -1.48739328514350    3.91941816840936
C         2.72210611380447   -2.71907084003285    4.42797393847944
C         2.78700785090841   -0.30459326364793    3.46720721414548
C         4.26465708770303   -0.17400910055231    3.42628233449150
C         1.83677626589744    0.72787848948407    3.23997570917763
C         2.13184307862484    2.14640055149659    2.91387750695589
H        -0.84477668292029    1.39026650418236    4.59275530144414
H        -1.60989004764169    0.35410039288672    3.39379638988641
H        -0.72033218430741    1.80440839000399    2.88750101442784
H        -1.36369992392680   -1.80104946841274    4.13956408573693
H        -0.17892134682209   -3.06691833365143    4.48956233941486
H        -0.46870699569680   -1.77806464661191    5.65573606607790
H         2.00113902270626   -3.50578368085157    4.62616735940151
H         3.47450771308178   -3.08658197453235    3.73273291590039
H         3.23282996834625   -2.47779445140893    5.36130758012325
H         4.57903527614524    0.53048579216656    2.66083293851778
H         4.74320760907609   -1.13203503477346    3.24434914825047
H         4.61063436564675    0.19986091773763    4.39138960495469
H         1.36255533754017    2.57820481927122    2.27919724432239
H         3.09158826271942    2.24244400540783    2.41484037886202
H         2.16662962773496    2.72255153948629    3.83942456285728
C        -5.39207233758437   -3.15534661316477   -1.52181468782148
S        -6.14356248429789   -1.51668390364022   -1.75089636290402
C        -4.84635374545841   -0.50914843970296   -1.17289080944329
N        -3.75147074040808   -1.09931561488375   -0.74150905299691
C        -2.74045936099474   -0.36489010328998   -0.28476327746316
C        -1.55679574427388   -1.07889289310164    0.16695176644555
N        -1.37896880545137   -2.30687741500405    0.00620253693816
C        -0.27041095537106   -3.01594573683110    0.40079916979622
C        -0.62558111096185   -4.14315273406619    1.36738276129091
C         0.63360200679488   -4.86771482896204    1.82936683663779
C         1.40822639314894   -5.41816148898646    0.63573150982846
C         1.76797408346711   -4.28853840469647   -0.32499661655796
C         0.51677201398884   -3.55376218145036   -0.79440892197044
C        -2.78970453128461    1.02939795847802   -0.23472874846650
C        -3.93147120163920    1.66734202244643   -0.69313550219952
C        -4.99025808716150    0.90312068097407   -1.17417061767032
C        -6.16901840943225    1.51522509892399   -1.64489043433001
N        -7.11915532610698    2.02953182963205   -2.03288569503322
H        -4.44611492598632   -3.18057994457906   -2.05056059742571
H        -5.24352862801045   -3.32813859991560   -0.46201265600395
H        -6.09521777856364   -3.86859626290658   -1.93866187296772
H        -0.76609177111156   -0.46619210807547    0.67647860856076
H         0.50204336645582   -2.25342524311799    1.00696439561965
H        -1.17740875735021   -3.73872303965610    2.21567279874558
H        -1.28082532652811   -4.83602896387099    0.83837094093001
H         0.35944834227754   -5.67874027456988    2.50387341227751
H         1.27242435414440   -4.16661456666219    2.37335842395526
H         2.31642538492521   -5.91549188241532    0.97817694290881
H         0.80106034821223   -6.15959190891233    0.11370027325193
H         2.43316468729457   -3.57566710330331    0.17474207324870
H         2.29791771601246   -4.68438352137995   -1.19194029463642
H         0.78581467043825   -2.72721259882094   -1.45417360016726
H        -0.13365224600735   -4.23185365933313   -1.34811617954810
H        -1.95437323894957    1.59924273254963    0.13717022962688
H        -4.01174822608968    2.74402898752564   -0.68209390558274
Cl        2.20328321874479   -0.46233812594394   -0.13811488159187
