72
 energy: -100.583983470850 gnorm: 0.000622605216 xtb: 6.4.1 (afa7bdf)
Ir       -0.77792068158660   -0.88197629816703    1.99710317033815
C        -2.38936843798050    1.49116698390771    4.20010132942860
C        -1.28939955106544    0.57355119213247    3.80017954931029
C        -1.29684980260055   -0.82753600344794    4.18881848660080
C        -2.40400792743050   -1.49154275469441    4.93132491530124
C         0.02564896080454   -1.33820827812118    4.05375233241256
C         0.52003422492632   -2.58997018436849    4.69372350640287
C         0.80282314006033   -0.33239018922731    3.37591902965201
C         2.27658787772152   -0.37748223645744    3.15192170824535
C        -0.01053065523617    0.88266286992249    3.28996828172727
C         0.57861707882715    2.22504374412724    2.96371615704398
C        -0.17583992007650    3.03667154137840    1.90687972796248
C         0.57490225153366    4.33347505921735    1.61874543066905
C         0.73322419663368    5.15786672334263    2.89403062481428
C         1.45921166876204    4.34936314026205    3.96574692288925
C         0.71388898081078    3.05001477557015    4.25596298307770
H        -3.36456094677990    1.04445691878129    4.02717681374672
H        -2.34576522999265    2.44332698788566    3.68575429550136
H        -2.29598188898389    1.66910734471060    5.27305660925585
H        -2.31351286751534   -2.57283797205714    4.88734471850130
H        -2.36182190881383   -1.18755130626802    5.97797445447506
H        -3.37455975291686   -1.19947325165761    4.53994395471984
H         0.48756359145909   -2.44508765126217    5.77458709961398
H        -0.10847694193399   -3.44614945485191    4.46037349757670
H         1.54857877940806   -2.80537451923963    4.42108489768869
H         2.64390656179671   -1.39927857354943    3.14499265632050
H         2.53813738490962    0.09103537539447    2.20614529156334
H         2.78091567953532    0.16555553848372    3.95155102907807
H         1.58571103795806    2.05700008196896    2.57126961559914
H        -1.18073744214770    3.28124900904623    2.24832068753433
H        -0.26194079257528    2.44740713778057    0.99388458639008
H         0.03162558663183    4.91096496829824    0.86839522586347
H         1.56176477561760    4.10466308942884    1.20920754210284
H        -0.25278990002199    5.44986805961988    3.26288552461345
H         1.29047440433596    6.07180216086457    2.67851950847442
H         1.54002462721469    4.93614489964351    4.88293672286383
H         2.47226947509974    4.12499882948348    3.62422989443212
H        -0.27524762671956    3.28408692744349    4.64807647847645
H         1.25153364103520    2.47326275433576    5.01060096004578
C         4.95093849605473   -6.14405074514482    1.32920476079850
C         5.10403427023986   -4.62835994740537    1.41187195952772
C         3.76842522557028   -3.88927791336083    1.52485570604315
C         2.89994565444368   -4.03341191008299    0.27577528695168
C         1.67303139335848   -3.12231532731566    0.27333134521665
C         0.66452478374489   -3.51553813995643    1.36713669246646
N        -0.53788361899679   -2.72984735514835    1.24065933190104
C        -1.49132217501230   -3.21505941900134    0.51921310138911
C        -2.61832043421148   -2.38694993778247    0.22044437751939
N        -2.60361133700512   -1.15460452817914    0.78116003188365
C        -3.53499692718225   -0.28859022624033    0.39486006273080
Br       -3.42719513322947    1.46734919778741    1.03840850672760
C        -4.57253906322904   -0.60376825947454   -0.47407901601139
C        -4.64001360609964   -1.88071096920040   -1.00890603661811
C        -3.63505296231947   -2.76462485729084   -0.66538665157851
F        -3.60828211918726   -3.99603209337225   -1.18492659362939
H         4.45803350115602   -6.43850867679362    0.40630566320323
H         5.92845431684304   -6.62095057605383    1.35243339547205
H         4.37061401455063   -6.51859491685355    2.16996600284151
H         5.71043703319411   -4.38409986790117    2.28795074506276
H         5.64294910174289   -4.27160162050638    0.53091313041525
H         3.97911642285125   -2.82961570179990    1.68470805493715
H         3.23663710207721   -4.27337284504228    2.39714045511249
H         2.57918812464277   -5.06992050524353    0.16651747476673
H         3.50365810101910   -3.78087063767799   -0.59803452717214
H         1.17779035760021   -3.19332928332102   -0.69659485142550
H         1.97202159241373   -2.08415871962225    0.41547220636856
H         0.42682214741913   -4.57889098690936    1.26316644508043
H         1.11097548175620   -3.33957490423156    2.34194158678443
H        -1.43579172893625   -4.20870430668044    0.08598983943886
H        -5.31004743523128    0.14242495141823   -0.72265036586081
H        -5.42784932304517   -2.17572463385084   -1.68335155955994
Cl        0.03108609234342   -0.02285277665656   -0.06657378115557
