72
 energy: -107.728511190818 gnorm: 0.000343589292 xtb: 6.4.1 (afa7bdf)
Ir       -0.41315759521413   -0.66615118731512    1.70874729381726
C        -1.77713692241141    1.11584415396071    4.28716494686305
C        -0.57864656208119    0.48354956812050    3.66700086081176
C        -0.13690941482214   -0.86409245118097    3.90290385121645
C         1.16459338069295   -1.01622285218547    3.30022290168286
C         2.08890375212091   -2.15809439853123    3.54899482499597
C         1.45842921323588    0.17492264635506    2.58545145711234
C         0.36920461254973    1.11756536080189    2.81662437254522
C         0.43882582996136    2.55832139381389    2.52262258026931
C         0.43552220364011    3.46217069077616    3.58441259136407
C         0.56529676699452    4.81662169786179    3.35163499329210
C         0.69904214365122    5.31009514783624    2.05485270477060
C         0.85843207436729    6.75158588513372    1.81048132880986
C         1.75877544418521    7.21027793528176    0.85052968183801
C         1.91967534375063    8.56496265586396    0.62523421276057
C         1.17977892765332    9.48480933639504    1.35039438992920
C         0.27935611478034    9.04045632817229    2.30490854198731
C         0.12180015564848    7.68611169489704    2.53585498214504
C         0.68808594876622    4.40249843936962    0.99676142567843
C         0.56142315012216    3.04681719833483    1.22511729945672
C         2.75293830456863    0.53663383729552    1.94239609853106
C        -0.75844254674289   -1.81087865459098    4.87324983233746
H        -1.59087775439191    1.25829555626208    5.35201652535212
H        -2.65714942735897    0.48338591636051    4.19075691859155
H        -1.97625656845941    2.08668783715504    3.84109581425880
H         2.59982852889056   -1.99130774818578    4.49805243470482
H         2.83856204380059   -2.24097203248427    2.76789004059317
H         1.55086765411338   -3.10018352359613    3.61613481642001
H         0.36047700150563    3.09853346125446    4.59805251080866
H         0.58926844542598    5.50026639340555    4.18715540162592
H         2.35202779941289    6.50099414444296    0.29190147062205
H         2.62630286747390    8.90593625977153   -0.11784326299294
H         1.30502001574949   10.54287248853916    1.17244988512146
H        -0.30266208422833    9.75393046298783    2.87049465523537
H        -0.59309764677818    7.34976706356872    3.27264359345112
H         0.76541294322365    4.76524146876530   -0.01733113700388
H         0.53292267774984    2.36108613817642    0.39250844252868
H         3.33504907123661   -0.34773660551059    1.70000144940227
H         2.58686802516665    1.11173613739487    1.03498873384168
H         3.32886690183833    1.15699165595626    2.62995780849085
H        -1.83867883618472   -1.69678847953077    4.89587786695868
H        -0.51457275036014   -2.84079537008926    4.62811161312389
H        -0.37463448341625   -1.60221776562050    5.87269514489289
C        -7.19461445874900   -0.14595389699317   -0.25702337041967
O        -6.22161918485992   -1.17985316829944   -0.32204670928041
C        -5.00205244463088   -0.96552348134352    0.15559116115994
C        -4.54644687844505    0.22978782799264    0.73458782989166
C        -3.25190511570162    0.30464887896192    1.20311150800792
N        -2.39755566478307   -0.71261656719311    1.15041930196034
C        -2.80794373320279   -1.86802049842298    0.56558641042060
C        -1.77563262239829   -2.86426201959689    0.48762450226812
N        -0.61259887719737   -2.53402316474030    0.94564424547098
C         0.45387287192957   -3.44213178991306    0.88471607191597
C         0.29496501145759   -4.76105063561973    1.31054686580746
C         1.36325093900240   -5.63616969331999    1.24242216914131
C         2.58291299385087   -5.21390352258004    0.73559742533550
C         2.73777434713429   -3.90460778330156    0.30475570212072
C         1.68469353346883   -3.01338867789852    0.38910149165383
C        -4.08964853448901   -2.02660994641151    0.06816328619383
H        -8.09234778626511   -0.56708425136534   -0.70373837980430
H        -6.87797146415255    0.72861320312557   -0.82900358816131
H        -7.39779819037667    0.13497243134709    0.77852993699094
H        -5.18227887823398    1.09448584140586    0.81970539008711
H        -2.88506838118820    1.22220416778310    1.63847017162756
H        -1.95678192415817   -3.82419880656829    0.01826570288609
H        -0.65193748610423   -5.08291432745521    1.71671408083260
H         1.24236651365994   -6.65253878917527    1.58373482004554
H         3.41105140406325   -5.90281012459646    0.67803278444759
H         3.68358277307729   -3.57649030276617   -0.09818814168299
H         1.78352421500584   -1.99650359014470    0.04106279392311
H        -4.39466241919903   -2.95099896696298   -0.39336407151244
Cl       -0.04822930837086    0.02819576860657   -0.55535428959034
