77
 energy: -123.602275940616 gnorm: 0.000570008032 xtb: 6.4.1 (afa7bdf)
Ir       -0.56717593331288   -0.48871054647356    1.60246339592255
C        -1.99366242502248    1.61122323402679    3.91914473639757
C        -0.86522853393897    0.72320848908992    3.52277474787365
C        -0.80292351868388   -0.68969799585354    3.81208181298502
C        -1.82991379759720   -1.44150612829690    4.58947836943354
C         0.51283464066747   -1.14486544821725    3.49274916252892
C         1.10297848377264   -2.45266472104535    3.88147966348796
C         1.21356499662056   -0.07181229616869    2.85997271355290
C         2.66404151723310   -0.07548191969811    2.52446435258431
C         0.36539790240092    1.10857921074292    2.92561169530986
C         0.82742213311855    2.48142320205841    2.66720404508925
C         0.76355746010363    3.42220340896143    3.69384832502771
C         1.24455449719265    4.69759100241329    3.46696316061590
F         1.17955693374374    5.60119283891912    4.46692304064185
C         1.79044178115874    5.08438302592036    2.25630944423809
C         1.83653747351675    4.12775956713432    1.25673138734171
F         2.35358047603247    4.47388231590279    0.06001393847104
C         1.36750340706097    2.84023771639652    1.43365691536403
H        -1.85330978698929    2.61550078192347    3.53147775815525
H        -2.04077751092079    1.65767076269573    5.00753694327390
H        -2.94560172154722    1.21844050493114    3.56763667119443
H        -1.75144138382474   -2.51028223857242    4.41184905720171
H        -1.67796201717950   -1.26365972824906    5.65460017994198
H        -2.83291630047880   -1.11202816667376    4.33197965758196
H         1.49418157207945   -2.36266471970830    4.89587149668593
H         0.36182269761169   -3.24693844995998    3.87612182703762
H         1.92344182882124   -2.72834098583979    3.22533633474853
H         2.95101903734707   -1.00607021174807    2.04010654635496
H         2.91757507545177    0.75354040779496    1.87048113571094
H         3.24374893273059    0.02055619166116    3.44369667156539
H         0.37111284746927    3.16785903314607    4.66475172975562
H         2.16237952145029    6.08278207038871    2.09855325717718
H         1.39110878405675    2.14093266332498    0.61157423722252
C         2.04426127216845   -7.64165365955581    1.79894670799585
O         1.01504740641495   -6.66787589165146    1.78825731110223
C         1.27851458477161   -5.43857300806008    1.30789072793367
C         2.52153316354692   -5.01419433735872    0.83849970409069
C         2.66315402422128   -3.71347788902795    0.37767852561027
Cl        4.21618274652672   -3.19096668808123   -0.19887126340388
C         1.60898552136155   -2.81995772421470    0.37056299509753
C         0.36480198675912   -3.25001484939537    0.83367668820253
N        -0.71068876033458   -2.34978211902298    0.85023156610874
C        -1.89765373248304   -2.74009915358405    0.53573295748522
C        -2.98437606106982   -1.80524640948543    0.61284298015310
C        -4.29137977284676   -2.24554708359436    0.51866878022017
C        -5.30516118111003   -1.31655028521173    0.75879404369632
C        -4.96885986332494    0.00235122381722    0.86357599250439
C        -3.61264754373364    0.43360818798926    0.70294059024383
N        -3.37880173069061    1.72748628151284    0.46819623836826
C        -4.46728385131527    2.61919198012776    0.07313851159896
C        -3.96590288802601    3.67301115274066   -0.91115478871461
C        -2.92231387724831    4.58671885054497   -0.26418922959940
C        -2.12754087918486    3.79414484415425    0.77761477702625
C        -2.05972095626787    2.32142885011457    0.38888225045762
N        -2.62837121752703   -0.49934404807778    0.78934589876593
C         0.20228839848221   -4.54727560988034    1.30415662125689
H         1.58796853483039   -8.53928952475382    2.21086088643527
H         2.87784170572030   -7.33167132482537    2.43399366909043
H         2.40458943571005   -7.84658681951608    0.78771783622646
H         3.37449378744416   -5.67090076052086    0.82819275267763
H         1.72631099268527   -1.82117400678265   -0.01517945765032
H        -2.08935176745320   -3.74990347703483    0.18982084205272
H        -4.50520253170798   -3.28464038770215    0.34000219903648
H        -6.33073769559644   -1.63401002850747    0.85781541195707
H        -5.72521536694761    0.73174259072392    1.09407236523732
H        -4.89234199093521    3.10990834890841    0.95492920421035
H        -5.24632725442423    2.04028076822283   -0.42425925283841
H        -3.53912224047113    3.16672125750625   -1.77771407047238
H        -4.81759671806155    4.25648409699351   -1.26037245613477
H        -2.25591462964333    4.97777973896086   -1.03310203510674
H        -3.40505877776647    5.43946090514993    0.21418825793598
H        -2.60556674325921    3.88293335144441    1.75393686499081
H        -1.11512152440440    4.18643749368290    0.86723836925327
H        -1.39119738347772    1.78531893870646    1.06124072588334
H        -1.65286791919218    2.21737552514883   -0.62136832098346
H        -0.74088370665831   -4.88919380230714    1.69785131934034
Cl        0.22393493438888    0.13955163078530   -0.55723410781826
