70
 energy: -117.892882782294 gnorm: 0.000245039769 xtb: 6.4.1 (afa7bdf)
Ir       -0.16631093886258   -0.36326330016473    2.06945125839453
C        -2.44534231092144    1.34985047198042    4.03071807654918
C        -1.09035642552511    0.75648881576725    3.86686433725458
C        -0.74848892268849   -0.59861875513870    4.20895946393128
C        -1.68007599443677   -1.57507485983327    4.84335795875234
C         0.68502820240851   -0.72510017826206    4.14392547116091
C         1.46518369723892   -1.83982063179613    4.75017942785182
C         1.20990227193132    0.48503077822182    3.60873308989241
C         2.64739023630768    0.87068244145056    3.52938728134292
C         0.09704135094853    1.41667858284734    3.44966491662194
C         0.25667152675551    2.86409100323644    3.23068344544907
C        -0.22763649884053    3.74899466372896    4.19351085967369
C        -0.03456766474415    5.10588889658484    4.01685758848248
F        -0.50346854583376    5.95306334274021    4.95665031114096
C         0.61954564112126    5.62976555322765    2.91617341801319
C         1.08498950976992    4.72537121799976    1.97745490651751
F         1.72418768702365    5.19938891285709    0.88879740031784
C         0.91982538739636    3.36023894092074    2.11091567871599
H        -2.50121147836372    2.33976314101767    3.58909004650604
H        -2.66689755269077    1.42651821527892    5.09582151806501
H        -3.21036977523076    0.71983235152685    3.58242360522239
H        -1.39052545528434   -2.59903705377231    4.62502535221951
H        -1.65755110409327   -1.44071630195017    5.92527629645169
H        -2.69930836815939   -1.41676895694117    4.50371905894551
H         1.68434681129592   -1.57199909927440    5.78490796597986
H         0.89470005518968   -2.76353036575306    4.76172511486193
H         2.41050241193904   -2.00009427310147    4.24208412768547
H         3.29205781492510    0.01316229777378    3.69189123089292
H         2.88370620483035    1.30916930755746    2.56352816382255
H         2.85921147783632    1.61631256748597    4.29591454750138
H        -0.72336977920625    3.39555372062199    5.08246461816332
H         0.76178508356522    6.69080202050252    2.79639833441424
H         1.27833310154008    2.69806523265730    1.33826906082608
C         5.54188487495513   -2.58003247079844   -2.08123573275467
O         4.87549129145843   -2.94545613717527   -0.87341743846117
C         3.58727393906219   -3.26736400185898   -0.95781353008422
O         2.95292404178738   -3.28495399368982   -1.98417656103577
C         3.02526252634358   -3.58105418907603    0.41110168177089
C         2.57687239458221   -2.34129195067575    1.21808890782555
C         1.22689492675554   -3.03413714298587    1.48859808843857
N         0.05076817565254   -2.22612633547518    1.30787516695445
C        -0.94906178297276   -2.68257984303033    0.63353300160847
C        -2.04190579420668   -1.79004460507512    0.37993281280908
C        -3.19084875846407   -2.16122939136802   -0.34486178657817
C        -4.14943433939323   -1.22079088453742   -0.59707430164151
C        -3.92968284424910    0.11666576693045   -0.19736445338961
C        -4.84303070389014    1.14440587179216   -0.49627027713211
C        -4.55988506258245    2.44073005158839   -0.14804592459549
Cl       -5.67559707083233    3.70997362865290   -0.51554126255598
C        -3.34767499485713    2.76221000212512    0.49027279952709
C        -2.45988530623159    1.77626356815148    0.81920495917517
C        -2.73003844593087    0.42772154665182    0.51014817450258
N        -1.85341835751846   -0.54739876393018    0.84747722318148
C         1.57852878884503   -4.09458561723022    0.42537274194463
H         6.49355684372717   -2.14985366127742   -1.78214465765670
H         5.69890000484062   -3.46276717759125   -2.70336845989663
H         4.94439883213186   -1.85570079723151   -2.63711299033898
H         3.73719459473535   -4.20086802470543    0.95343968885626
H         2.45972720961809   -1.45609203129540    0.59829666398681
H         3.18704240102121   -2.09955342801552    2.08107221711577
H         1.18727264792216   -3.46297205810313    2.49311761558593
H        -0.95737997157456   -3.68586453106440    0.22546068215108
H        -3.29674410597520   -3.18110975256117   -0.67659923490064
H        -5.05830551252049   -1.47367323565599   -1.12025358730379
H        -5.75607264966526    0.90119424666800   -1.01559259270849
H        -3.12653882996536    3.79385300109288    0.71056721587330
H        -1.51399514942800    2.02610172123897    1.27335016283276
H         1.43523567352435   -5.13271915350838    0.71010127536788
H         1.11553778751924   -3.90269036754769   -0.54115764980531
Cl        0.90257206861272    0.50848344057921    0.11914242974945
