73
 energy: -105.306571400874 gnorm: 0.000705420058 xtb: 6.4.1 (afa7bdf)
Ir       -0.41937417215823   -0.84857776210278    1.36297143730516
C        -2.33544672816233    0.89503602034186    3.62314266627916
C        -1.03608891615207    0.28871449072451    3.22470969793111
C        -0.62578106387397   -1.03855275926315    3.58053358023052
C        -1.42479757600245   -1.99413528281867    4.40239137225019
C         0.78452456986516   -1.15680594609078    3.29650037435322
C         1.69279876213094   -2.18622914741953    3.87576557589983
C         1.20298135366116    0.04782304741425    2.66272251137907
C         2.59764489339001    0.43390519714545    2.31314544814718
C         0.07153957014084    0.94571059717703    2.60396838409625
C         0.20747343483902    2.39808533973184    2.29637103160227
H        -2.34708092085078    1.00062598810031    4.70821533850366
H        -3.17565371955869    0.26417703091038    3.34272529373173
H        -2.46369807182077    1.87632062118173    3.17989515933608
H        -2.48919305301084   -1.84907866884290    4.24362962082922
H        -1.17231688817712   -3.02477180186822    4.16808162656362
H        -1.21173934668686   -1.82450558946717    5.45858165914463
H         1.15637348602348   -3.09239200831935    4.13807034323126
H         2.51708977575143   -2.42823854827269    3.21154961885064
H         2.11926130457468   -1.77509978277714    4.79250467077294
H         2.63425807093931    0.89117488156529    1.32637568441156
H         3.26549567112676   -0.42211004430290    2.32680728430821
H         2.95680814338495    1.16808430754951    3.03506618821600
H        -0.75685514380719    2.89279583711312    2.24505390891277
H         0.72694196489070    2.54762121253060    1.35255245054517
H         0.79829891768264    2.87105322297556    3.08221008052671
C        -2.26037787886348    8.00154610288627    0.85117179028708
O        -2.52171374621679    6.60123509311822    0.86993054608926
C        -1.73226483977921    5.82725605618417    0.11981577513034
O        -0.82193820421623    6.25695977162862   -0.55424466626559
C        -2.09178868869068    4.38927522292091    0.21351100494755
C        -1.31546651857346    3.45954502379867   -0.47391164013603
C        -1.61922862536039    2.11230877484948   -0.41924918320789
C        -2.71884393255914    1.67454737888155    0.31580166419066
C        -3.15555212169031    0.27230037458255    0.21326337773820
C        -4.48379428862914    0.06312935796734   -0.17369741392952
C        -4.94032491133534   -1.20726541577582   -0.47356988631043
C        -4.03293319458817   -2.25046360886430   -0.42609362847868
C        -2.73653945600031   -1.99003071212171    0.00755682597299
C        -1.72743998146072   -3.01220000427460    0.02748296439768
N        -0.58123010787468   -2.77315088060510    0.55359231915643
C         0.40988981828489   -3.82738562983074    0.43944484377579
C         0.27716907913729   -4.81556182657149    1.60715938780488
C         1.10311355789706   -6.07229389575971    1.30642816619103
C         2.37459596491898   -5.73935438029550    0.51290192767454
C         2.85563225896019   -4.33198853212757    0.85120461119944
C         1.84205433300093   -3.28770040188661    0.36893010272739
N        -2.31127079356269   -0.75669167075332    0.37573602694922
C        -3.50436200894824    2.61031466773076    0.99512622146143
C        -3.18688611361952    3.95318395793305    0.95898942136135
H        -2.47246323362053    8.41143075136002   -0.13810341671887
H        -1.21384606549186    8.19410696738083    1.09466695684869
H        -2.91879810450068    8.43853288704321    1.59679451250275
H        -0.47689729334591    3.81243872020564   -1.05397817631745
H        -1.01901080355742    1.40227657812961   -0.96385648416587
H        -5.13513418984900    0.91688581909250   -0.26737824143644
H        -5.96398857862399   -1.37148346199417   -0.77029992929577
H        -4.31042639477395   -3.25296338752776   -0.70733481599217
H        -1.94149940651074   -3.95636042624182   -0.46627677483296
H         0.19664100800930   -4.38398554600654   -0.48147476349052
H         0.63426019385348   -4.33659218407780    2.51512422724863
H        -0.77045475410515   -5.08303633196558    1.75159751545258
H         0.50263846243612   -6.78610903992114    0.74088071957169
H         1.37041022135791   -6.54781671328982    2.25098431179534
H         3.15356105215147   -6.46734836433949    0.74192685428919
H         2.18148258974074   -5.80044785113503   -0.55971394442820
H         3.82068071025146   -4.14196943765675    0.38079297413791
H         2.99871573386977   -4.26591456511742    1.93041137016696
H         2.05637398847831   -3.00750788326095   -0.66255711515188
H         1.91759798002385   -2.37927095014142    0.96609122558296
H        -4.36221647651710    2.28287810107267    1.56308192523559
H        -3.78823976447309    4.67190040708089    1.49170497140245
Cl        0.66437920677830   -0.35070936524080   -0.70624046852598
