82
 energy: -117.229986015810 gnorm: 0.000556025598 xtb: 6.4.1 (afa7bdf)
Ir       -1.14564526104152   -0.55889360331959    0.54697703964308
C        -1.96907313385156    2.04951830802927    2.84121532849936
C        -0.73866205090555    1.20946309388560    2.66443963715514
C        -0.78220715613660   -0.27509812386826    2.67059457696760
C        -1.77386262553326   -0.91855521844593    3.60743674119633
C         0.64834337392045   -0.69077704582652    2.84786419680854
C         1.09861545758695   -2.10371684557568    2.99933383806187
C         1.41704148713295    0.41738780229877    2.89238258203223
C         2.89634269775192    0.47492499540960    3.04746358362648
C         0.56419762607787    1.60814708667231    2.77295528558052
C         1.13598290447017    2.99034220097608    2.79553878727553
C         0.87665434005026    3.72995546280005    1.47488971843455
C         1.58868067823301    5.07917186821615    1.48035122552431
C         1.12280286499029    5.92697271394816    2.66161059886743
C         1.35631535384071    5.18864739578334    3.97757097987419
C         0.63734566924172    3.84199918152015    3.97135942781580
H        -2.85525623477961    1.54507324949290    2.47078377685807
H        -1.87497493266580    3.00853427638224    2.34172424109132
H        -2.11773387998517    2.23902438967901    3.90465724246262
H        -1.82270680127101   -1.99575836496300    3.47941954592301
H        -1.42545045908625   -0.72294762618415    4.62247414480506
H        -2.76710292393517   -0.49421227038162    3.50776646781276
H         0.27272994028597   -2.74527947967353    3.28540087904403
H         1.52217105767275   -2.47458620736243    2.06657663770573
H         1.86874739589388   -2.17028139009394    3.76490752810766
H         3.31180592745215   -0.52452874837684    3.13268935202451
H         3.34664162292173    0.95387109605931    2.17771566041250
H         3.17406298798708    1.04698083148298    3.93276441993865
H         2.22062521856034    2.90058570883324    2.90385965847694
H        -0.19259899007295    3.89334081193181    1.34217433291826
H         1.23358944747348    3.11906760295755    0.64241156945811
H         1.39115317354370    5.60631344595715    0.54394140890029
H         2.66803360454206    4.92345480625969    1.54996273517750
H         0.05805402142979    6.14720853491256    2.55381305065144
H         1.65923223240362    6.87822097516419    2.66876404691478
H         0.99690320412753    5.79563150944580    4.81161648206245
H         2.42876479850818    5.03342964187657    4.11944054843276
H        -0.43460086937117    4.01346638093909    3.88688730788206
H         0.82448115810970    3.31414152302899    4.90865412902158
O         2.85637795300212   -4.98474914729211   -2.76727561305599
C         1.92499730026862   -4.26238875014896   -2.49095339091942
O         1.48017669480320   -3.31594363385878   -3.31158048342913
C         1.15914618153859   -4.34927937752582   -1.21941855851182
C         1.38503015086911   -5.43258645021267   -0.37185968986959
C         0.67007935296793   -5.54427971410764    0.80755259917121
C        -0.26280529223775   -4.58209706270426    1.15146708385476
C        -0.47651493224611   -3.48310908429566    0.31674621501171
N        -1.43103106174138   -2.49916870949878    0.64037854363858
C        -2.60993599506414   -2.86148594140824    1.06721698762301
C        -3.59916825870554   -1.84145620942448    1.21888471629701
C        -4.89010869659761   -2.07055780363465    1.66277041445925
C        -5.75538600916529   -0.98052845825109    1.72269435892697
C        -5.35642169843950    0.22729312092109    1.20771141198583
C        -4.06660740457454    0.38258981999054    0.63112950623530
N        -3.74349665528552    1.49260628555298   -0.05586860508309
C        -2.42085587271841    1.73150404364450   -0.61181095699552
C        -2.21190831263865    3.22051980682055   -0.86530849827390
C        -3.15752460335511    3.71966437983724   -1.96147616388302
C        -4.46447939019098    2.92240190038180   -1.91517480606845
C        -4.76701406535875    2.43683426293906   -0.49944991595729
N        -3.16446302366781   -0.61416295420357    0.79767968491879
C         0.23421217872282   -3.37204875009457   -0.87444102077180
H         2.00218161503279   -3.27603259760611   -4.13278016977123
H         2.11920212834467   -6.17000095229659   -0.65694389309602
H         0.84241290284304   -6.38191671874995    1.46459406177046
H        -0.80429902929592   -4.66729541354149    2.08058679003299
H        -2.86663954709317   -3.90588406017660    1.19626970848618
H        -5.19144359117616   -3.05270256453154    1.98140140062079
H        -6.73654588657808   -1.08502302342925    2.15706258536934
H        -6.01669734325650    1.07389322840521    1.27027269237993
H        -2.29467131176432    1.18103218194523   -1.55466262646625
H        -1.63522806586257    1.40264794275866    0.10563736874733
H        -2.39593096075588    3.76390614489484    0.06210965051641
H        -1.17349812965134    3.39087119521151   -1.14881172868164
H        -3.35161300632870    4.78197477152774   -1.81266337029331
H        -2.69441235119673    3.60712670176487   -2.94222482967121
H        -5.29603196136669    3.53619995015428   -2.25990119561548
H        -4.40393763955528    2.05660763197568   -2.57667717803450
H        -5.73479368872039    1.93792955472490   -0.51512942408472
H        -4.81476905743886    3.28671482878722    0.18830304330159
H         0.07069176407261   -2.53190176546254   -1.52968503180956
Cl        0.95989169398597   -0.22308157966620   -0.28939238646120
