51
 energy: -85.245038204591 gnorm: 0.000854577157 xtb: 6.4.1 (afa7bdf)
Ir       -0.69089970100496   -0.88115756393027    1.27144972559514
C        -2.01922780224442    1.31522628619072    3.70076556973244
C        -0.90169959757099    0.53587017090047    3.10902231558445
C        -0.57512963281909   -0.81604342479287    3.50709104751823
C        -1.30901640162800   -1.59499029366613    4.54331412035687
C         0.72919434577110   -1.12768633159051    2.99532475519843
C         1.57264984527338   -2.27094741278776    3.43526966938526
C         1.13734571664999   -0.03842309913181    2.15721470696187
C         2.47639387366490    0.15752351954000    1.54028136902678
C         0.12066841977963    0.99922923627540    2.24219140952026
C         0.29760561692944    2.37388353311743    1.69799686060983
H        -1.81046645974724    1.44967134897068    4.76278122232460
H        -2.96731081670105    0.78949898330264    3.61833621175822
H        -2.11711281323440    2.29208209639082    3.24039841244034
H        -2.37462503986842   -1.38796640007108    4.50934382229297
H        -1.14824861827666   -2.66262282753379    4.42301431389701
H        -0.94091599808365   -1.30869417970394    5.52929319620874
H         0.97551905571252   -3.15294772676666    3.64970023583811
H         2.32636456822189   -2.52461463877215    2.69591030574155
H         2.08415680300404   -1.97863871991604    4.35367649903095
H         2.38204331602296    0.58510251885262    0.54473892088905
H         3.02663559968044   -0.77592239303381    1.47726709133593
H         3.04617729586014    0.85778200886929    2.15154657331898
H        -0.62142109409453    2.94819539731306    1.75752093360692
H         0.61591563894830    2.33528057353943    0.65860021961716
H         1.07207359551521    2.88659219120638    2.26890183334589
F        -4.41404476624609   -3.95192711513663   -0.85888250617763
C        -4.18620986575229   -2.68021879332507   -0.51966630051564
C        -5.12750048682144   -1.70418811036487   -0.78150352008530
C        -4.80048908638461   -0.39637471076051   -0.45225124616846
C        -3.57559836035645   -0.13637881217507    0.14816345104107
Br       -3.12148200681663    1.64395893384754    0.50916219127651
N        -2.69331214685889   -1.08121171736564    0.46488206613412
C        -2.96677831400648   -2.35760228213563    0.09176610198406
C        -1.89815764446610   -3.28594113715102    0.26541438367263
N        -0.76691397559991   -2.81589811687465    0.69464102767593
C         0.34098448882079   -3.66865281411525    0.77302859530405
C         0.24588445367830   -4.92343315676544    1.37736452085568
C         1.35232823609090   -5.74828016520597    1.43722380764879
C         2.54943670038133   -5.32838219099645    0.87303360726061
Br        4.08443933919449   -6.47634331161855    0.95281453437273
C         2.65359167094306   -4.08694418069898    0.25916629987442
C         1.55383038735419   -3.25274689737113    0.22149463206683
H        -6.06780785978382   -1.95564699549191   -1.24561697365489
H        -5.48178179277563    0.41377248126453   -0.65764018839618
H        -2.01598339019833   -4.31844634206671   -0.04329090865687
H        -0.68439155113457   -5.23949689776972    1.82379549001027
H         1.28741703695468   -6.71067209196074    1.91835840136143
H         3.58720201883947   -3.77837501320179   -0.18369117201986
H         1.60835404381627   -2.29054343935318   -0.26421000413800
Cl       -0.18042884463055   -0.22981797599115   -0.96668363187050
