74
 energy: -117.181472630593 gnorm: 0.000620511420 xtb: 6.4.1 (afa7bdf)
Ir       -0.42799939478438   -0.79116928810365    1.57975001752131
C        -1.64385356227742    1.74834703594596    3.78504357607807
C        -0.57542598575548    0.88704170103138    3.21162657027712
C        -0.24883930124559   -0.41172100535267    3.77925009016409
C        -0.97748202023416   -1.08167674586345    4.89122127311420
C         1.03379291352464   -0.79933031645241    3.29724396372544
C         1.87593600576401   -1.87743089919864    3.87787802024719
C         1.41383945078119    0.14235377067222    2.27965607763457
C         2.74794652741503    0.20362301152685    1.61689602745463
C         0.43298481634289    1.22763161993320    2.27800750692536
C         0.69482656189303    2.54234134616985    1.59698187830468
C        -0.43483368722297    3.06054767689569    0.70246670420066
C         0.00629827691760    4.34590595975178    0.00827468904173
C         0.38553839300712    5.40742947983762    1.03776368106396
C         1.49272569149136    4.89187335396471    1.95295971739112
C         1.05836577631359    3.60503586517850    2.64890464862377
H        -2.55930416884093    1.18865170279465    3.95658149143271
H        -1.86978796836001    2.60020822085904    3.15546777777062
H        -1.29372853029328    2.10929121647346    4.75362946065878
H        -0.94775705114162   -2.16225716226954    4.76726679093556
H        -0.49841438266048   -0.83556298159715    5.83908154792919
H        -2.01342567515866   -0.76043751760352    4.93665848903606
H         1.26275033557550   -2.70354089709945    4.22538956088754
H         2.61236277142308   -2.24704573617386    3.17084110556361
H         2.40551210809760   -1.46477705286144    4.73801043800874
H         3.24625368493880   -0.75989415359016    1.65934689264886
H         2.65439951273489    0.50554221168761    0.57655200709308
H         3.36827384480895    0.93855987571405    2.13043914851120
H         1.56671337721181    2.40638924874157    0.95075281519891
H        -1.33171685288630    3.26737413271225    1.28489613546705
H        -0.67960766301247    2.30192829840529   -0.04119122385091
H        -0.80295006259781    4.71443003098366   -0.62446659780807
H         0.86402201902792    4.14064760904845   -0.63643258831864
H        -0.49211995623670    5.66223506604249    1.63600601798922
H         0.71657567969558    6.31583561993869    0.53064471069118
H         1.73717861428919    5.64702874477238    2.70255772865112
H         2.39253376393244    4.70590868671982    1.36211072076110
H         0.19397496726558    3.81231900440643    3.27853711039732
H         1.86354383189160    3.23604295911357    3.28670868577631
C        -0.72907849256311   -6.88758814174933    4.06307534041627
O         0.17277846676834   -6.32371114305548    3.10986277578688
C         0.16159651699749   -5.01038559788170    2.94664758886768
O        -0.57964219711029   -4.25140307362110    3.53441081973312
C         1.19123796435150   -4.56589111614307    1.96278927605540
C         2.39911524362379   -5.23392106062073    1.89230239914083
C         3.42920936458095   -4.78805412629134    1.05266649631564
O         4.54516498348775   -5.52956947169168    1.05251583589114
C         5.63118967721211   -5.15746797920267    0.21943087740972
C         3.22994196588790   -3.62492136824602    0.30208952149016
C         2.03015170241245   -2.94641089944262    0.37813096380050
C         0.99374795584209   -3.40461759000940    1.18816062167462
N        -0.23559747891715   -2.74179109301636    1.15607947248688
C        -1.30184867305746   -3.42619873684078    0.88911701532908
C        -2.54077022323121   -2.72939961659073    0.79019704359201
N        -2.49564939232926   -1.40376352765007    1.06243891018308
C        -3.59062498937851   -0.68870901162041    0.82583045129185
Br       -3.49843054777870    1.16348324862345    1.06742235841949
C        -4.79491761135918   -1.23087271247920    0.39525993997917
C        -4.87531783920671   -2.59614463893832    0.16395398388680
C        -3.72544262134371   -3.33657546648965    0.35064003073733
F        -3.71688847386196   -4.65130210731920    0.10313362557645
H        -0.26212878768786   -6.88812918061915    5.04857001863349
H        -1.65213965624906   -6.30742838283863    4.09958625435559
H        -0.92128852271187   -7.90612910390369    3.73670329449627
H         2.56944981172858   -6.11214546774315    2.49282523285177
H         6.02464491453889   -4.17698201360982    0.49762478232955
H         5.33865026331610   -5.15819569585263   -0.83326372282719
H         6.39374804860863   -5.91542982537387    0.38478410307458
H         3.99963009980124   -3.24918705508041   -0.35175294993890
H         1.86044700571364   -2.06841560691262   -0.22596068297231
H        -1.26143514263499   -4.48713992367896    0.66881654947235
H        -5.64961644541900   -0.59088416495706    0.24607718759011
H        -5.78759469795691   -3.06582645370196   -0.16805808421021
Cl       -0.32566085379249   -0.35604658851550   -0.75675499809171
