81
 energy: -124.354996224054 gnorm: 0.000589389397 xtb: 6.4.1 (afa7bdf)
Ir       -0.58278333641248   -0.80937975251914    0.16033476139947
C        -1.19460272668786    1.21200601767288    2.88350759507380
C        -0.25514137581074    0.40607044963308    2.05758157844264
C         0.03021435828188   -0.98527727971861    2.28598865363476
C        -0.55140537413252   -1.81060079789844    3.38406693213409
C         1.17043522579929   -1.34280888747058    1.48066883746302
C         1.97561442436218   -2.58771032283499    1.62376641001146
C         1.51667206283383   -0.20655435557370    0.69330600908984
C         2.70995874832399   -0.05751533652091   -0.18341782279933
C         0.62645680794855    0.87920613523334    1.04222824175332
C         0.87279052463159    2.29785066264526    0.65173709801205
H        -0.74809396499525    1.36025899415058    3.86741111875389
H        -2.14261386936884    0.69828009720942    3.02437923291491
H        -1.37897831469674    2.18423929776763    2.43809323300381
H        -1.59163932065111   -1.55099863152522    3.56068113673383
H        -0.48290332793837   -2.87090061914620    3.15603986270455
H         0.00395379762405   -1.62637641667228    4.30438278779469
H         1.36805461096873   -3.42198521326568    1.96125964294740
H         2.45418340872045   -2.86616105494272    0.68897647656822
H         2.75526210459133   -2.41186274566847    2.36565351575140
H         2.42607954446375    0.33851929339154   -1.15681461820890
H         3.21874317827792   -1.00664361689506   -0.32131332072139
H         3.40351011152124    0.64831059270817    0.27429803799029
H         0.03715050281460    2.93643796079193    0.91878918603637
H         1.04817258752935    2.38212352809562   -0.41773127050649
H         1.76316288986329    2.65926491706400    1.16829061692422
C        -1.35890715519014    8.15441359789206    0.17329243094621
O        -1.76830471511298    6.79378699628415    0.27882654563278
C        -1.34418632223048    5.96067185635410   -0.67524621423109
O        -0.63689675368796    6.30586931968995   -1.59617055189535
C        -1.83261190572594    4.57173775175045   -0.47657573078394
C        -1.43195286404167    3.58838487819866   -1.37800023281162
C        -1.87720501888047    2.28685509371516   -1.24214156262905
C        -2.74572013853247    1.95335583752233   -0.20586105149685
C        -3.38408006208782    0.62472512187179   -0.17183472401954
C        -4.78105431370425    0.60805639983539   -0.23192710674022
C        -5.46676643248294   -0.58972004233880   -0.32709205444832
C        -4.73171615610262   -1.76015030199485   -0.37960147231192
C        -3.34480693659160   -1.68594074983413   -0.28184232980928
C        -2.51005156322329   -2.85058658312122   -0.33958554240018
N        -1.23543804537641   -2.67959756662163   -0.23599670343230
C        -0.37800185955591   -3.78772362280823   -0.29494459584986
C        -0.60249995834327   -4.89722747031365    0.52082732705649
C         0.26900209501146   -5.96879049484330    0.45319810074945
C         1.33133309733102   -5.95786635473260   -0.43352738519817
C         1.55090691575824   -4.86448733277435   -1.27507379401722
C         2.65326239858373   -4.86081786686820   -2.24529503938481
C         3.05542428077324   -6.03984942574600   -2.87755469420539
C         4.07489899501547   -6.03652179442481   -3.80192416877897
C         4.73948982158134   -4.85006797280168   -4.12506565831754
O         5.73119424450867   -4.95484279428235   -5.04870404049345
C         6.41393234331662   -3.78472533646350   -5.44831594715797
C         4.34985657659549   -3.67033682369243   -3.49767564382379
C         3.31847520759669   -3.68407269347424   -2.57726686503710
C         0.69532911735210   -3.77041804150935   -1.17864818068427
N        -2.67529590027258   -0.51016948190142   -0.14946691980324
C        -3.15006242606995    2.94080580984573    0.69571926853444
C        -2.68779900561187    4.23615524350318    0.57245752969645
H        -1.74889528893381    8.59565255479177   -0.74577340191180
H        -0.26946520727533    8.22064976947826    0.16012405741971
H        -1.76661219253215    8.65817274963656    1.04520830477653
H        -0.77682880381068    3.86637337091893   -2.18911129285599
H        -1.57718643041771    1.53719224524529   -1.95550502452195
H        -5.30893183186300    1.54814056037772   -0.22827999494961
H        -6.54382538993747   -0.60640633764395   -0.37689464785665
H        -5.20624184844063   -2.72132232745986   -0.48921849880795
H        -2.94156776907812   -3.83053764292077   -0.51070149186324
H        -1.42866445680706   -4.89873349620689    1.21533991886786
H         0.11698739263479   -6.82116656036537    1.09731366792927
H         2.00713492506048   -6.79780147380502   -0.46403452499730
H         2.54503274559601   -6.96686981683865   -2.66568960153190
H         4.37750661707655   -6.94459197897330   -4.29948092367940
H         5.72993444077859   -3.05955867232261   -5.89945177274945
H         7.13875099887007   -4.10964348682664   -6.19250871276768
H         6.93997568355473   -3.32289732561964   -4.60739515779408
H         4.84073338926388   -2.73674131193732   -3.72126935841948
H         3.03917363000342   -2.75504886039492   -2.10434565920770
H         0.82044643432332   -2.91567679367957   -1.82378594063050
H        -3.82650913164599    2.68957899932105    1.49877700831051
H        -2.99687886304204    4.99606434889844    1.27192461900526
Cl       -0.24471788192779   -0.54113358538043   -2.18935949734006
