85
 energy: -126.458386040533 gnorm: 0.000374028626 xtb: 6.4.1 (afa7bdf)
Ir       -0.96706191865569   -0.78636701309921    1.34666893571541
C        -1.96475727554057    1.66466857890827    3.65748680614196
C        -0.95862695409528    0.70753733045044    3.11108135500318
C        -0.89311250732572   -0.66909025782110    3.55914884702529
C        -1.80163178453723   -1.26542324100205    4.58113303688368
C         0.35632950008462   -1.21951199330332    3.12278101746535
C         0.95006534049142   -2.49797513743748    3.60235261305993
C         0.97775174992926   -0.25640190340850    2.27387606706705
C         2.35576578808659   -0.35419434228182    1.70932785488965
C         0.18108581601682    0.96371727522783    2.30566430261000
C         0.71869002691079    2.27716090509484    1.80661205137705
C        -0.20811320094404    3.08457435299569    0.89234620638526
C         0.51871958232847    4.33314768309432    0.39846339072357
C         0.96488667361808    5.19545372468749    1.57670047877779
C         1.86464135870633    4.39450166736787    2.51416012208945
C         1.14858652809338    3.13997620862130    3.00637884073559
H        -2.97254357867618    1.26097142326865    3.58713306016342
H        -1.93744769586626    2.62297394555395    3.15278284180341
H        -1.74441975252495    1.82302649820065    4.71410615221872
H        -1.76262322881145   -2.35044349530676    4.55742200848670
H        -1.49019583512054   -0.93579462899799    5.57293704230878
H        -2.82824287745596   -0.94470701232348    4.42678245423549
H         0.18676980936478   -3.24654819752369    3.79489936841474
H         1.66779152708733   -2.89951170097334    2.89275604987157
H         1.47341171431435   -2.30058701409734    4.53875666821499
H         2.69565828941375   -1.38513569355015    1.68139627262606
H         2.39420408843773    0.04611361589617    0.69873042165376
H         3.04652873702212    0.21856239823975    2.32887381216261
H         1.61611218152506    2.05729431874695    1.22081023698322
H        -1.10564014672550    3.39800217851235    1.42635280905079
H        -0.50052867341358    2.46898138835151    0.04017059837262
H        -0.14096503981241    4.90768703338337   -0.25482284122068
H         1.39162608652834    4.04063123077577   -0.18982601092888
H         0.08730471609404    5.54549898316440    2.12560576514403
H         1.49959801124483    6.07458547914479    1.21180389198696
H         2.15398173935993    5.00998075084701    3.36844421245096
H         2.77729862719652    4.11182223083286    1.98440098884756
H         0.27295212501786    3.42930378265393    3.58777087204346
H         1.81083849702571    2.56533029487099    3.65676166898585
C        -8.61252589444571    4.43100290497865    0.20098106403804
C        -7.98828486421249    3.04494546806222    0.18082822522857
O        -6.59451854928354    3.19411490092574    0.42856720596888
C        -5.80353559195404    2.11800638926767    0.46900229619778
C        -4.43077093488200    2.38854220406394    0.71751945732200
C        -3.52212862590458    1.38160045904948    0.81831074087493
C        -3.91088250883703    0.03406713346387    0.66132149588525
N        -3.00051750904909   -0.95443198383605    0.77396071427386
C        -3.36246439136170   -2.21088872142245    0.46086928665987
C        -2.28847962276335   -3.14869347959982    0.43997585041980
N        -1.10465269363785   -2.70628526323189    0.73287797076287
C        -0.00750268630267   -3.57335475208366    0.66714607033019
C        -0.07133598368709   -4.85419238119974    1.23460485052009
C         1.00809261984344   -5.69998196616170    1.14927034331939
C         2.18265169335341   -5.31328518202351    0.48938366594487
C         3.34520898562763   -6.16084332102668    0.34449488675889
C         3.34707088936336   -7.53631841511519    0.91783717942512
C         4.41281153296949   -5.66593505198944   -0.32481267106440
C         4.44346730143421   -4.33543127788544   -0.89182306837920
O         5.37599854947319   -3.85153121642702   -1.49630844174647
O         3.32751714713989   -3.56287009188284   -0.72222958961677
C         2.23570003559535   -4.02384633799453   -0.07042075060872
C         1.15076007380718   -3.15696443389211    0.02796395568490
C        -4.68825084284421   -2.55556978360783    0.12625389961314
C        -5.64597720788929   -1.58387336255846    0.10388008170116
C        -5.27729305448234   -0.24165952716405    0.34933734436188
C        -6.20403274096881    0.80914561357378    0.27989298422671
H        -9.67858735549003    4.35426004222313    0.00953766855841
H        -8.45799416418414    4.89772456086826    1.16971987513490
H        -8.15855532611632    5.05633550448692   -0.56280539839428
H        -8.14068078180398    2.57243100015089   -0.79724664644901
H        -8.43430643724574    2.41326163512187    0.95895130176339
H        -4.13948071217113    3.42158190283362    0.81653901061442
H        -2.47538385556984    1.58815749378778    0.96589099658396
H        -2.44990332920044   -4.17035236794112    0.11601979826037
H        -0.96289083001156   -5.16512500369368    1.75581314009293
H         0.94941258594943   -6.67942927137793    1.59398149315839
H         4.28995428067783   -8.03250867874651    0.70849150011520
H         3.20396503811160   -7.49622636004312    1.99614841137942
H         2.53881662239475   -8.12521664915205    0.48818519513460
H         5.30932342594930   -6.24628922037452   -0.47383779439650
H         1.20395364890047   -2.18163023965185   -0.42824258508594
H        -4.91952620457999   -3.58316861884418   -0.10104154624627
H        -6.67429896949203   -1.81815146140265   -0.12340436713675
H        -7.22923604680997    0.56311370009884    0.05562768999072
Cl       -0.55106475987459   -0.15918014031342   -0.91891306101889
