59
 energy: -104.609541943683 gnorm: 0.000902598349 xtb: 6.4.1 (afa7bdf)
Ir       -0.69980551378744   -1.13612270358320    1.76061617467925
C        -2.07242871949723    0.85435110930404    4.18166061751368
C        -0.87720314630922    0.22263349164234    3.55616481627282
C        -0.30794399650351   -1.02680449762940    3.97910838589410
C        -0.78963942093122   -1.81720371139885    5.14626797226657
C         0.95915915247677   -1.18921750540953    3.30165915132081
C         1.99476648639350   -2.21493662531841    3.61382936811459
C         1.14742461767488   -0.06704657180638    2.44792897703142
C         2.37984331768177    0.27963526619000    1.69474136764801
C        -0.01410377251577    0.79200174304071    2.56612242658029
C        -0.10304621240306    2.15282397207878    1.96353007558901
H        -1.81726871443742    1.13730324105405    5.20341623011873
H        -2.90959332146509    0.16208883622453    4.23217036957089
H        -2.37375590512548    1.75204429054151    3.65069208532488
H        -1.87475163878429   -1.83851008535471    5.18923920986442
H        -0.40746963158793   -2.83281232875846    5.13290615123436
H        -0.43059361152042   -1.33724977171517    6.05778595011574
H         1.57385210200222   -3.05320390443140    4.15841228779073
H         2.47073966346212   -2.58545208826313    2.70827871407118
H         2.76562247468654   -1.75714814831438    4.23402045565245
H         2.13909019609173    0.59765815690556    0.68255442597455
H         3.06274293405616   -0.56281362070106    1.64338924825853
H         2.87995245817559    1.10938983404184    2.19530812550915
H        -1.09673445816733    2.57728574216030    2.07141822263754
H         0.15308932573059    2.11788584223031    0.90673398001481
H         0.60990743408825    2.81306512216375    2.45904555903040
C        -5.14590161756472    2.20537731666058    0.77315919390405
O        -5.39089485862481    1.01936022604417    0.02879328035061
C        -4.55862150547321   -0.00596644117138    0.11731394869739
C        -3.41956428302370   -0.06592187367667    0.92417200838615
N        -2.61543977747078   -1.12459409128830    0.96883966120649
C        -2.90168863766636   -2.20731310704199    0.20530041482548
C        -1.94105217433385   -3.25894139665609    0.28545215095764
N        -0.94990469391326   -3.09427778549306    1.10661003649696
C         0.09051888055410   -4.04177806519194    1.13789572953255
C         0.86676902536187   -4.26159081700461    0.00684157695877
C         1.92492234137652   -5.15542086995691    0.06003961162679
C         2.77699709293784   -5.34631974832625   -1.15871950623698
F         3.75073541908847   -4.41230005711738   -1.25546686213556
F         3.40377518478360   -6.53338839904144   -1.18559370465249
F         2.07552524996853   -5.26095162167380   -2.30376108479996
C         2.21255874687280   -5.84140370381096    1.23701493552345
C         1.42916938520770   -5.63999468674482    2.35379088984332
C         0.35752487278895   -4.74860675581475    2.32370211082603
O        -0.39412584479294   -4.60870288955851    3.42200638502240
C        -4.03172095523117   -2.24281633460828   -0.62064597489157
C        -4.85482761180856   -1.14530548679324   -0.66869951278595
Br       -6.39686833675113   -1.09955706756284   -1.77829128178907
H        -4.17919399577872    2.63745323898060    0.50890662034401
H        -5.94099286430090    2.89064033520397    0.48762401897614
H        -5.20093982776836    2.00743323943930    1.84516877759703
H        -3.14673514128463    0.76923840392356    1.54916064548359
H        -2.03244311987435   -4.14900110321955   -0.32616231668466
H         0.65749712575482   -3.70747173463652   -0.89500726708521
H         3.03842655899573   -6.53365443447043    1.26850175479822
H         1.62530954682443   -6.17375953802150    3.26906306057687
H        -1.17178099690803   -4.05380057669811    3.25585714420915
H        -4.23619631241327   -3.11533977868368   -1.21964940716045
Cl       -0.08000797503742   -0.73914848090956   -0.51458938596855
