67
 energy: -108.214197877218 gnorm: 0.000702572629 xtb: 6.4.1 (afa7bdf)
Ir       -0.62858779076814   -1.53596009818690    1.15963024222387
C        -2.36023371119576    0.59262397351797    3.24009092217653
C        -1.10938730222947   -0.13926397813970    2.89628259494706
C        -0.77741895592930   -1.45608323818274    3.38128784409394
C        -1.61334579775191   -2.25219147694756    4.32674417464338
C         0.61081194061119   -1.70315141454211    3.07286967301863
C         1.47615454426228   -2.76281438532019    3.66181487103395
C         1.08304728787300   -0.61174975348146    2.29384280061293
C         2.48810440706365   -0.37350085395829    1.86508454908481
C         0.01681251625767    0.36538809173143    2.18544272542504
C         0.23574527976314    1.75489376261319    1.68438853471589
H        -2.27983135604370    0.95059765973833    4.26732552168071
H        -3.22948390975617   -0.05717078947138    3.18009026357164
H        -2.51860710503187    1.44683386250640    2.58968210497366
H        -2.67171492036116   -2.09659196426975    4.13803660351878
H        -1.39767575932661   -3.31397882584209    4.24913294984692
H        -1.40079410258723   -1.93450942824213    5.34813947277242
H         0.88919776828120   -3.49710654894080    4.20313569657502
H         2.06749016122607   -3.26471284510254    2.89919296762308
H         2.16552163272797   -2.29252284031170    4.36338290638171
H         2.51627548214809    0.01987421415482    0.85142333303518
H         3.07097519229591   -1.28855372647148    1.90202838776918
H         2.94542708928457    0.36302208517428    2.52681627514354
H        -0.67552861451665    2.34377680690154    1.71730026103088
H         0.62151452354179    1.74297551525027    0.66657193219976
H         0.98215394352023    2.24180275461661    2.31246368826902
C         0.98448745020182   -2.91317160152090   -4.06634755990704
O         1.38327026594879   -3.52894011434913   -2.84534691842770
C         0.41659200543913   -3.87641833414001   -2.00892168559528
O        -0.76731301224028   -3.76638449604867   -2.25529572577266
C         0.95248804117301   -4.51517788524941   -0.77119515921972
C         2.08192284942570   -5.30916359080057   -0.85117989371761
C         2.55749509056893   -6.00987369634457    0.26314778157466
O         3.65326838816011   -6.76608056393608    0.06005075156705
C         4.17814603255587   -7.52141307872677    1.13808935178902
C         1.87180281399310   -5.89592700215481    1.47273857891761
C         0.76765530085263   -5.06859125641377    1.56779095400204
C         0.30086733373857   -4.36505339033172    0.46634319697065
N        -0.79612884679710   -3.49073319792727    0.56926409324828
C        -1.92305367200951   -3.83930944864729    0.04371644502797
C        -2.92226244504434   -2.82442634599865   -0.10083756806716
C        -4.21770492397492   -3.08635819596594   -0.58803509787412
C        -5.08091903246917   -2.04618212831535   -0.77924090840343
C        -4.61961128571409   -0.72496995993391   -0.57886939792352
C        -5.42446693025203    0.39633804972377   -0.85094231564821
C        -4.91052825382877    1.66192948943055   -0.72408433057778
Cl       -5.89483857939064    3.04287161765033   -1.06617081764393
C        -3.56919689375918    1.85590774741281   -0.34863971789558
C        -2.78064579459486    0.78071810864488   -0.04529332479616
C        -3.28373614608895   -0.53294557445897   -0.11853543916029
N        -2.49491699759638   -1.58886394807289    0.19913072518153
H         1.89192417414126   -2.78887378527269   -4.65022096396465
H         0.26368784491980   -3.54337478033925   -4.59087003483619
H         0.52601308296330   -1.94487392965463   -3.85565507539034
H         2.60050399182067   -5.41775727719689   -1.78936461268666
H         4.48840721715473   -6.87347010987969    1.96144399764307
H         5.04747548937105   -8.03587113137795    0.73408577595477
H         3.45348321091463   -8.25793394945796    1.49437419370308
H         2.18728968907863   -6.44637331030913    2.34368664982685
H         0.23120701870332   -4.99639322186626    2.49926721232317
H        -2.09531449173415   -4.84148248778692   -0.32910171257496
H        -4.50114374978508   -4.10556532076348   -0.79150242553409
H        -6.09363534096241   -2.21012878272687   -1.11279171942686
H        -6.43988913950376    0.24508715539434   -1.18040727824825
H        -3.17348042417213    2.85818903337374   -0.31360970313572
H        -1.73858899605382    0.91056707576346    0.19504803126440
Cl        0.38575722149796   -1.07854794022617   -0.94168764894025
