74
 energy: -102.595423032119 gnorm: 0.000377477512 xtb: 6.4.1 (afa7bdf)
Ir       -0.15747829993505   -0.62500021397152    1.79875608019222
C        -2.14258689532496    1.50648838145893    3.61007926634244
C        -0.85760128827811    0.77359810082059    3.42054583256230
C        -0.63504504564918   -0.53906344444908    3.97982327578580
C        -1.62702036100439   -1.31389075941798    4.77986912252017
C         0.77063162473013   -0.81022123250437    3.93814967299823
C         1.42368983969984   -1.88208174213468    4.74080244166518
C         1.39046423707716    0.23267632499867    3.19098215624736
C         2.85979171810296    0.43235124724849    3.01209557145742
C         0.37848134120458    1.24528945336751    2.89814557454776
C         0.73434663562504    2.62597205545277    2.41744008799035
C        -0.12663226727355    3.17842446537962    1.27664669939619
C         0.41920409280278    4.53415072236178    0.83536803025378
C         0.42043209942099    5.51687743760423    2.00407087183827
C         1.24307654653074    4.96602953687936    3.16587670227558
C         0.71415456493550    3.60344341346175    3.60507732806520
H        -2.99723429841119    0.86066153415244    3.42027645485575
H        -2.21042198332956    2.38931626816242    2.98504981874533
H        -2.19812006287309    1.82413677365098    4.65244962292561
H        -1.37058916330769   -2.36923104446819    4.80004955475493
H        -1.62817508382774   -0.94578282161181    5.80672929318916
H        -2.63227605961025   -1.20411175936329    4.38278238619122
H         1.26527954232956   -1.65153920188825    5.79552901638203
H         0.98226842035329   -2.85833602465980    4.55253493358504
H         2.49370931150974   -1.92720696417624    4.56437421537897
H         3.40494854821289   -0.49191090402459    3.17592102265769
H         3.08438363197575    0.79025052054843    2.00989662817208
H         3.21546646717822    1.17492300619832    3.72693327186729
H         1.75988745159201    2.58403124443416    2.03924316963877
H        -1.15909143920567    3.31618691847154    1.59795506212007
H        -0.10775053848326    2.47909059965411    0.44002824677019
H        -0.18901495741790    4.92936641283625    0.01931708827002
H         1.43731761530755    4.41427230077177    0.45900505506204
H        -0.60608117828281    5.69125673378521    2.33563653602671
H         0.83097258235774    6.47605276566163    1.68228772673170
H         1.20938335039113    5.66056281085936    4.00788236015822
H         2.28615226583885    4.87059043446273    2.85558105419061
H        -0.30505070166413    3.71349875619518    3.97709965374092
H         1.32904079774963    3.21277031101882    4.41779040404633
C        -4.74336782014523    2.17160673255930    0.00769518515680
O        -5.02808930237008    0.80095688249070   -0.23358376165453
C        -4.12101701361482   -0.12324896492178    0.05387160462398
C        -2.87233064757781    0.11504137399508    0.63492746791472
N        -1.99714523344749   -0.85293120326719    0.88168766554169
C        -2.28552118298469   -2.12223618506284    0.52621195000311
C        -1.17405419754020   -3.01970072203075    0.62418901353002
N        -0.04418999346252   -2.55403807535047    1.03681136759680
C         1.13031424854383   -3.37948380367740    0.79622759097824
C         2.37735136784364   -2.81905926510209    1.46762072588105
C         3.59124693884235   -3.69777171008781    1.16949630049839
C         3.83189676168707   -3.79286484006798   -0.33274548182536
C         2.58624936848785   -4.33585073734190   -1.02387904756668
C         1.37700277951762   -3.45668755561675   -0.72320029944180
C        -3.52568660404433   -2.46178684751170   -0.02192617495375
C        -4.44776733131339   -1.46578901204675   -0.24445384855982
Br       -6.15800882363664   -1.84093121520194   -0.98490492638536
H        -5.61247083100408    2.71366137475736   -0.35835425982067
H        -3.85468171436513    2.48831273303340   -0.54136822722944
H        -4.61876102325577    2.35951505423798    1.07577561905991
H        -2.56141843106289    1.11605397960248    0.88843393472159
H        -1.27380559846206   -4.03432728079254    0.25330304806492
H         0.93039943288037   -4.39070118351286    1.17422359269695
H         2.55254061334102   -1.81188739040752    1.08684879358442
H         2.22339718034383   -2.77546894440834    2.54135774894399
H         3.42676392749365   -4.69875242212223    1.57477533026985
H         4.47162060201216   -3.28069334834448    1.66003719239637
H         4.68421018961730   -4.44332263549271   -0.53539871651465
H         4.06411048516534   -2.80262364459407   -0.72917474810404
H         2.74315384398512   -4.36962803159077   -2.10313677822002
H         2.39487430358968   -5.35572598983847   -0.68210290928194
H         0.49504422145099   -3.85319974782583   -1.22890463175140
H         1.55168944582723   -2.44593173293946   -1.09425600705255
H        -3.74570596700939   -3.48571864092477   -0.27590312022203
Cl        0.71717594356430    0.06648858224069   -0.30841648247168
