85
 energy: -123.168905286672 gnorm: 0.000476464047 xtb: 6.4.1 (afa7bdf)
Ir       -0.82805779713112   -0.75345502107188    1.36300429105432
C        -1.91852004152384    1.74282025731370    3.58488463844026
C        -0.87564154168597    0.80502341772170    3.07353039428198
C        -0.75886603210917   -0.55177444529471    3.57189530704663
C        -1.65016850456799   -1.14505283873984    4.61165151171101
C         0.50973576504297   -1.06881665555484    3.15947605295652
C         1.15036940314201   -2.30965850111386    3.67728516815065
C         1.09502035670711   -0.11563815719597    2.27329849188146
C         2.48292238585464   -0.17872223034103    1.72585087973986
C         0.25463911434687    1.07520375656699    2.26334158937508
C         0.73849705691880    2.38890887516932    1.71140547962595
C        -0.22579737165342    3.11692604516004    0.76965339817005
C         0.43831769497607    4.37969648177376    0.22689349393115
C         0.84349644267424    5.30624459976679    1.37055502497327
C         1.78561538999593    4.58576556727326    2.33127440750920
C         1.13576237769331    3.31580851213392    2.87349377776063
H        -2.91186584589321    1.30432353260736    3.51730147048814
H        -1.92001416195877    2.68598118158735    3.05164265416580
H        -1.71382097462754    1.94033094929274    4.63808547521902
H        -1.59655281524012   -2.23000408506316    4.60370113780995
H        -1.33634778259260   -0.79730960716381    5.59659816508514
H        -2.68296121794639   -0.84272271338589    4.46050126849626
H         0.40785391504198   -3.05431494236429    3.94951048474498
H         1.83318544665994   -2.74337779907030    2.95213133144816
H         1.71947901670153   -2.05622994896626    4.57230148940880
H         2.86153535597859   -1.19604567062783    1.74978031954740
H         2.51342515487978    0.17872860204508    0.69914730236615
H         3.14012795741938    0.45072054565052    2.32654937604475
H         1.64222900536736    2.18347873653605    1.13013299737887
H        -1.13728789176166    3.40600013402674    1.29362555902899
H        -0.48954805447243    2.45561570782001   -0.05729197687495
H        -0.24992037250561    4.89619516858899   -0.44513481968422
H         1.32363029741677    4.10824272205887   -0.35256200384641
H        -0.04930557656746    5.63054011025170    1.91077373253530
H         1.33128259682771    6.19801204379029    0.97157426871694
H         2.04711867780461    5.24549553767981    3.16137068292319
H         2.70881114021245    4.33007555651727    1.80615950623988
H         0.25204420422782    3.58266588294492    3.45331927014557
H         1.83040179905273    2.79814110188238    3.53799182647767
C        -8.71931142229205    4.03668981398739   -0.01040949078268
C        -8.03250684614334    2.68315517479604    0.07806149783709
O        -6.64564724325468    2.91401560273897    0.29618467411882
C        -5.80538655760739    1.87635287279387    0.40167182023903
C        -4.44457502566968    2.22310585000527    0.61076258827605
C        -3.48936404532339    1.26589393419636    0.76215436394605
C        -3.81903410203050   -0.10417647998560    0.69720206413584
N        -2.86190019584649   -1.04337651655176    0.84814356401622
C        -3.17021607095533   -2.33165061317510    0.62908133962056
C        -2.05322073261662   -3.21882478687703    0.63459762970032
N        -0.87875942154265   -2.70289232566990    0.83525210461285
C         0.26204990438857   -3.50078996341488    0.78390863763149
C         1.39963421085133   -3.02101993351694    0.14578341290211
C         2.52742569460659   -3.81658395904862    0.04612174519602
C         2.55658267336960   -5.08836365614016    0.60401086053588
O         3.60483660442133   -5.93359164476522    0.57042445140715
C         4.78962949596405   -5.53338983515890   -0.09054398012445
C         1.40333286564847   -5.57376083080489    1.28221091898403
O         1.52651699343810   -6.80887342796446    1.81794146158682
C         0.42020377348771   -7.37468893201735    2.49250254916072
C         0.27228460714865   -4.78480400114444    1.35082527634112
C        -4.48681551701853   -2.75599813577029    0.35238484483234
C        -5.48671540205488   -1.83056178115298    0.28585404404541
C        -5.17537161564798   -0.45977896150206    0.43401836017940
C        -6.15014810200317    0.54257901306080    0.31038537266876
H        -9.78375203277877    3.89646111228911   -0.17300690758312
H        -8.30641418119061    4.61152232311911   -0.83478468698072
H        -8.57011640831666    4.59323965588309    0.91060106996901
H        -8.44341786713228    2.09929473383402    0.91138478327264
H        -8.17238759210439    2.12380838417649   -0.85534856198878
H        -4.19890973532158    3.27239851294500    0.63832737911375
H        -2.45180945015124    1.52938803348009    0.88220035347912
H        -2.17941977836039   -4.26685163694773    0.39177061187613
H         1.37433912400470   -2.04679467648921   -0.31421717755598
H         3.38706397240812   -3.43474628915365   -0.47905032450994
H         5.47259790551001   -6.37468289284604    0.00781852919276
H         5.22845401539074   -4.65007729287596    0.38096250140381
H         4.60534655112388   -5.33520838957097   -1.14992317380594
H         0.14012186433698   -6.77953133485614    3.36588690104388
H        -0.43823989658024   -7.48583334413269    1.82454274866034
H         0.75339711463520   -8.35792594605218    2.81800476988817
H        -0.60363408404304   -5.13213689661071    1.87353825325765
H        -4.67657900965585   -3.80583733418562    0.20086629732452
H        -6.50755889174498   -2.12379736649187    0.09674307727440
H        -7.16649721975196    0.23631608529422    0.12265965634437
Cl       -0.49880049640524   -0.17653432796100   -0.92762663519625
