58
 energy: -94.987299743921 gnorm: 0.000884275764 xtb: 6.4.1 (afa7bdf)
Ir       -0.96959215287188   -0.76493404334029    1.70468503721562
C        -2.35766743589915    1.26742168297363    4.23086170811469
C        -1.20690759995030    0.58662979070220    3.58049454570658
C        -0.77036876859397   -0.74579322660405    3.92901331235281
C        -1.40548623999859   -1.60327090228862    4.97001229530168
C         0.53350878633178   -0.94838860979724    3.36304032275037
C         1.47398440887707   -2.03818242267876    3.74222372443096
C         0.82924597405956    0.18538627659505    2.54163509410805
C         2.12472050093293    0.48766331555585    1.87296191723384
C        -0.25466853114791    1.14316034186141    2.68947070127357
C        -0.19512541710740    2.54047355665110    2.17474036653178
H        -2.12338318947443    1.39283229208179    5.28865996217500
H        -3.26638680689945    0.67416805085039    4.16474247172068
H        -2.54299947917625    2.24433986231819    3.79803750551516
H        -2.48593001592578   -1.49110484728267    4.96515349019809
H        -1.15655098538035   -2.65075828769624    4.82321074527808
H        -1.03916474804780   -1.30433562210576    5.95288296181996
H         0.95178274590068   -2.97149690315722    3.93486890732788
H         2.22456075501681   -2.20729955603175    2.97598494546676
H         1.98443191739949   -1.74123575224299    4.65943279986300
H         1.95607135481371    0.94115357362545    0.89901077939690
H         2.72524094236525   -0.40827057488230    1.74834435338251
H         2.68253492671160    1.19907998409102    2.48288332270418
H        -1.14589515589999    3.05082513155114    2.29280165291302
H         0.07107256805351    2.54677764016394    1.12006868929602
H         0.57214954286954    3.09110138796468    2.71877387072155
C        -7.23940264315668    0.34499694140217   -0.66719511664445
O        -5.95931130991594    0.55641185512589   -0.08849171037994
C        -5.14364006970086   -0.47463721301996    0.10068026074159
C        -5.39639283847170   -1.81145290291123   -0.22226347784965
C        -4.41032176991456   -2.74707169063035    0.01051020033282
C        -3.20031965347254   -2.35775037178427    0.58472896455900
C        -2.07226094722221   -3.22313233190062    0.71372358765624
N        -0.95551461995085   -2.70311881376114    1.11073217980998
C         0.20016138633681   -3.49861775618920    1.14733976262194
C         1.36543286018745   -3.03037227116191    0.53809838402813
C         2.50600751176382   -3.81301044228803    0.54147681862033
C         2.50901453156462   -5.05007674398411    1.16619347540662
C         1.35094089460765   -5.51275597173642    1.78654041440808
C         1.30317888479044   -6.83144271338809    2.47438103094627
O         0.30655429697516   -7.27568071194020    3.00003774945981
O         2.46290099552859   -7.47597915756548    2.45763087797579
C         0.19307581666020   -4.74156640797092    1.76936570171461
N        -2.97069211312254   -1.07035629736746    0.96409778288570
C        -3.89939152114989   -0.17223486980234    0.69376177661846
Br       -3.58376903666711    1.63414864398298    1.07429915620265
H        -7.84240190750894   -0.32366391369921   -0.04912798162058
H        -7.14915326738581   -0.05441823503259   -1.67964720720097
H        -7.70251948379766    1.32858891531853   -0.70200047822972
H        -6.33248792069840   -2.10426861249409   -0.66794630198610
H        -4.55849233554033   -3.77897368442087   -0.26338820079532
H        -2.13792878087784   -4.25947445382381    0.40220676024003
H         1.34553768349019   -2.06988463063861    0.04563178213953
H         3.39997705275389   -3.45624348173944    0.05456191222476
H         3.39877130599929   -5.65800646835183    1.17883492471395
H         2.41188579348504   -8.33425809480415    2.91602388776177
H        -0.69112728492789   -5.11458828045134    2.26430939541233
Cl       -0.57159840778446   -0.09758997192128   -0.55763079475696
