75
 energy: -116.693202935231 gnorm: 0.000322665110 xtb: 6.4.1 (afa7bdf)
Ir       -0.77724053386712   -1.08768530349061    1.12076894075117
C        -1.99786321938006    0.93422207551003    3.65127287912507
C        -0.89115862572216    0.15528764778736    3.03264871982721
C        -0.62128035399003   -1.22857839684674    3.32940577310206
C        -1.39481487882184   -2.06143475356110    4.29565154425548
C         0.67660554420635   -1.55116384874452    2.79698339293288
C         1.46261897627623   -2.77176897856711    3.12863130589926
C         1.13887599538508   -0.41750881010647    2.07000065373461
C         2.48263610084892   -0.23155286243692    1.45519553795250
C         0.16371081123890    0.64610518314944    2.21583055495518
C         0.43682114099528    2.06484041205946    1.84448662291463
H        -1.76370656534364    1.08460211608352    4.70581138911799
H        -2.94180634050152    0.39740234572122    3.59517044547134
H        -2.11193563812276    1.90554839415558    3.18137708792534
H        -2.45939144401582   -1.85421414534056    4.22787372051340
H        -1.22807392992398   -3.12061010303213    4.12033373607015
H        -1.06969627087760   -1.83059139102461    5.31082108203369
H         0.81961186098565   -3.63549052421835    3.27270757044113
H         2.18510588840489   -3.00625407001413    2.35265926012601
H         2.00499483253202   -2.59128275083577    4.05773185242396
H         2.39229928439742    0.14454868843658    0.43736077001647
H         3.04204469007170   -1.16207971047357    1.44171125470851
H         3.04292676586818    0.50387431350879    2.03267349007366
H        -0.45205938664693    2.68047918581194    1.93821412160100
H         0.80246565399762    2.13463585625460    0.82296353731814
H         1.20668091106766    2.46462981323165    2.50574262972787
C        -2.14733242274802    7.74505594998540    1.14642580465845
O        -2.48701244853049    6.36129965521385    1.15120237057606
C        -1.88642744036706    5.58889851091951    0.24165275110465
O        -1.07984042519116    6.00622136208547   -0.56009349231167
C        -2.31277917815011    4.16898744114101    0.33175495387327
C        -3.32654206479107    3.76041644245465    1.19746564329332
C        -3.71293569957456    2.43530205868505    1.22835562074929
C        -3.07697002242858    1.49009391981782    0.41970812050167
C        -3.59814632437930    0.11287848350249    0.35053121736025
C        -4.96390714093699   -0.02478160024098    0.08652487624170
C        -5.51792564202844   -1.27662185819885   -0.11697630075158
C        -4.68166784551793   -2.37625118545398   -0.07235160206087
C        -3.33412700042492   -2.18439674337201    0.22742988878466
C        -2.39932513106635   -3.26813445896379    0.26627129199497
N        -1.16853959345425   -2.99937402687803    0.56337447025866
C        -0.22147732231973   -4.02048266736911    0.60015174287188
C        -0.51248786955326   -5.25281644601800    1.17828070577090
C         0.44787262996925   -6.24854916279613    1.20479983139688
C         1.69811391036225   -6.05319254484879    0.63066405977912
O         2.68996558298233   -6.96224069439078    0.59417004767063
C         2.46221127159832   -8.25012266852422    1.13373360189336
C         1.99285878288237   -4.79831946518102    0.02776839288566
O         3.22347976608616   -4.69223836859311   -0.52228882025581
C         3.55541641053652   -3.49884647222690   -1.20375137790188
C         1.04422393832884   -3.79615685843395    0.04324701084792
N        -2.80111631649515   -0.95685019771258    0.46731830105860
C        -2.06002489181583    1.90016093860458   -0.43900764652991
C        -1.68762964613944    3.23027378662285   -0.48548138477256
H        -2.44717828414773    8.20379353966182    0.20245311974081
H        -2.68732000465031    8.18805048045287    1.97852610922078
H        -1.07012170725060    7.86984243685516    1.27121931680002
H        -3.81279905537146    4.48697510042324    1.82816473626864
H        -4.50689749764246    2.12792700905407    1.89193854725719
H        -5.56934862594976    0.86435521223637    0.01839130165720
H        -6.57027868382771   -1.38582344347907   -0.32530857530983
H        -5.04854072333666   -3.37219353609397   -0.25850879356376
H        -2.71284928032028   -4.26910738627760   -0.00594164101443
H        -1.46914659468367   -5.42188092721291    1.64674239350187
H         0.20951332259149   -7.18720404975235    1.67660832393502
H         2.25036608007992   -8.20030705296081    2.20520388596783
H         1.64404695632652   -8.75757485109274    0.61554272848314
H         3.38818033920232   -8.79841347136089    0.97346272263161
H         3.55259507454176   -2.63936933385692   -0.52826705848345
H         4.56077709677457   -3.65387645008977   -1.58918124721481
H         2.86918683980379   -3.31051378427916   -2.03366217967193
H         1.23272615552414   -2.84091436315040   -0.41765257870341
H        -1.58397022790119    1.18563867310323   -1.08948154077276
H        -0.91319865155147    3.56370516754580   -1.15881209711198
Cl       -0.02840066406404   -0.71247248249599   -1.12145942544828
