60
 energy: -90.698015105291 gnorm: 0.000519264549 xtb: 6.4.1 (afa7bdf)
Ir       -0.63358320120808   -1.06406121394110    1.13509595608439
C        -1.95988654985122    1.06428403964523    3.54308867049489
C        -0.82295838427908    0.26703338278744    3.00272716639185
C        -0.57332632233585   -1.11418255097925    3.35316278749254
C        -1.38881477046177   -1.90773684211562    4.31734959943199
C         0.74527422996717   -1.45747542833793    2.89118721489402
C         1.50980110552187   -2.67109889962113    3.29047622796438
C         1.23363362182688   -0.36084847802774    2.12621212653222
C         2.60209127755844   -0.20255080604195    1.55864836342541
C         0.26252523755172    0.71997741125406    2.21532829455964
C         0.53347687616410    2.10750354799278    1.73748105191270
H        -1.80021406959335    1.21333182569088    4.61162211209359
H        -2.90584173715467    0.54297101848407    3.41825532644772
H        -2.03319047495933    2.03724609649387    3.06832225281215
H        -2.44539635378365   -1.67273505155990    4.22263233044612
H        -1.24821401501809   -2.97427905391721    4.16464404950934
H        -1.07789506402480   -1.66800307633612    5.33492065967956
H         0.85514709701563   -3.52427785071174    3.44454747250304
H         2.25761824882022   -2.93390447915463    2.54794600562191
H         2.02115747934672   -2.46118956050222    4.23080869532563
H         2.55771542156200    0.27573962047482    0.58267383486617
H         3.10166327970700   -1.16146870839687    1.46020571888179
H         3.19432091116363    0.43225752144402    2.21829920980677
H        -0.31218689079598    2.76544865262647    1.91536512417153
H         0.76495684838990    2.10948576997475    0.67333237425323
H         1.39917737014110    2.50643226325581    2.26608054160449
C         3.63003392987374   -6.53372792087741    0.50463098085072
C         2.46345564958574   -5.60143983065574    0.48816984165493
C         2.58068363365332   -4.31110119394683   -0.02340517953355
C         1.51247253643117   -3.43725450158388   -0.00687136174465
C         0.28148929816592   -3.85158154980859    0.50361335716055
N        -0.79538341081118   -2.96202272320323    0.49312945469101
C        -1.97734657789117   -3.36633861740061    0.13947073873208
C        -3.01034006495877   -2.38161774437855    0.09178650678258
C        -4.32712411482202   -2.66419431700007   -0.32790069549365
C        -5.23170400084976   -1.64660910358023   -0.41499650754690
C        -4.80903981285704   -0.32180595123206   -0.15716721178260
C        -5.67039693742655    0.77918864809413   -0.31288582824036
C        -5.20159582278204    2.05330185009013   -0.11717808194611
Cl       -6.25461180752511    3.41192022675671   -0.32381319881976
C        -3.85741936994764    2.27832143061018    0.22816597195843
C        -3.01076523571318    1.22064026050731    0.41288380273294
C        -3.45854476113893   -0.10467174293830    0.24533240548204
N        -2.61026641436324   -1.14484353542423    0.42972155162108
C         0.15044586366947   -5.14533492225928    1.01466767459760
C         1.23409303966633   -5.99826680412523    1.01197088106913
H         4.09292143579212   -6.52879473043967    1.49186177649310
H         4.38036968113658   -6.23528898234628   -0.22250782543195
H         3.31419347683425   -7.55265086708709    0.29321027540993
H         3.52215761411241   -3.98886953265659   -0.44119594985694
H         1.59913549849077   -2.44455978791411   -0.42102476286179
H        -2.15970489391661   -4.38410422879670   -0.18369044397337
H        -4.59316206283841   -3.68117167145935   -0.56459498819601
H        -6.25472467452778   -1.82850235695533   -0.70494401617214
H        -6.69386774842283    0.60804697407253   -0.60562950399104
H        -3.50576873172625    3.29164964532773    0.33489840227389
H        -1.96840313990654    1.38331608853574    0.63398919429573
H        -0.78898419692078   -5.46128419687737    1.44214612170686
H         1.12912677313944   -6.99109403713268    1.42257581980783
Cl       -0.04700482246606   -0.30058342439171   -1.05235436892821
