62
 energy: -113.300009335360 gnorm: 0.000514990696 xtb: 6.4.1 (afa7bdf)
Ir       -0.15325984024759   -0.78785265823819    1.47167576265424
C        -1.71406714758826    1.09833952505645    3.92605944153356
C        -0.46944881158441    0.56758331251638    3.31514921507953
C         0.14202177538760   -0.67691633121363    3.69352550273630
C        -0.34916184518909   -1.57686768684212    4.77399713377451
C         1.43274730654495   -0.74684014043871    3.06695391296986
C         2.52306410041066   -1.68758227594858    3.43553147268220
C         1.57345880714037    0.39673625606704    2.21401169315590
C         2.83072709883484    0.80809099877697    1.53817297407449
C         0.38444212337002    1.21497109613966    2.36914212804205
C         0.26566554814653    2.60265967107186    1.89322085456171
C         0.05145263549312    3.62263296355340    2.81777547057643
C        -0.02167977762851    4.92850249209702    2.37115437872444
F        -0.22778903445734    5.90815538193258    3.27420295926444
C         0.10758582415737    5.26996933220742    1.03721198126470
C         0.32075457067596    4.23388497362066    0.14501389358048
F         0.44882208649293    4.52623468685326   -1.16500217011905
C         0.40527404144312    2.91383107576084    0.54282442582783
H        -2.04608373527082    2.00610393325034    3.43336518137164
H        -1.51594583688402    1.31688547582956    4.97642365472616
H        -2.51407132073788    0.36185161794355    3.89717364507846
H         0.04740169109167   -2.58085521567607    4.65550376564686
H        -0.01227092675387   -1.19192206387733    5.73699193815152
H        -1.43432637504311   -1.61795377945649    4.78958663939774
H         3.04381124194857   -1.27567399204969    4.30123143543122
H         2.13777775156392   -2.66563971957681    3.70760482967114
H         3.24330683009099   -1.79975620991235    2.63159137114129
H         3.34029113423665   -0.04563772812887    1.09985617254017
H         2.64045732126249    1.54394936582431    0.76363616603671
H         3.49389470091145    1.25279904244622    2.28151023070890
H        -0.03471781477762    3.41882235705081    3.87206258130134
H         0.04528150368250    6.29366650592585    0.70816621441241
H         0.54091827631418    2.13970641163609   -0.19612386013220
C         0.93535193434408   -7.26424335734946    3.30332687079192
O         2.09687779256522   -6.76979816968128    2.65785683020416
C         2.03166865161117   -5.60219270966824    2.00031237408247
C         0.91146616341881   -4.78251867409364    1.90851777403355
C         0.97144463860652   -3.57581754990636    1.20546439344580
N        -0.16891754779529   -2.76903545521250    1.08214634512338
C        -1.29357425414465   -3.31537929357768    0.73845829557699
C        -2.40781318917248   -2.45014711767964    0.51748005239721
N        -2.18143325784623   -1.13584695234139    0.76455265396073
C        -3.12341814402605   -0.26170192475518    0.41988282389692
Br       -2.76073897699570    1.57102339948255    0.63936966492594
C        -4.35603819217891   -0.63133542873198   -0.10721157906920
C        -4.62849499341601   -1.97408564498120   -0.31690837937069
C        -3.63124619831063   -2.88153348826577   -0.01146065344743
F        -3.81025101980022   -4.18569457692697   -0.22586197241684
C         2.14869136478596   -3.16855505001237    0.58436039320832
C         3.26364582508249   -3.98704323265584    0.64530182515584
C         3.20189701662517   -5.17373517319776    1.34471535597545
F         4.29545801019001   -5.95506399979465    1.40847116244821
H         1.23401018109060   -8.21422159862076    3.74023155857809
H         0.12820065850327   -7.43144488854937    2.58681037080460
H         0.60569637777620   -6.58738492565744    4.09468170504551
H        -0.00706156490585   -5.05836855330704    2.40069483755718
H        -1.38070969445047   -4.37625182226531    0.53382318992058
H        -5.08386742883434    0.12771984319824   -0.34622869471288
H        -5.57179925130972   -2.30805110635690   -0.71933565596476
H         2.16305850142275   -2.24981695320067    0.02016295879251
H         4.18447185737156   -3.71754697135573    0.15403083846915
Cl        0.24582483684532   -0.39269829881388   -0.83969133531490
