78
 energy: -114.390421830618 gnorm: 0.000697215602 xtb: 6.4.1 (afa7bdf)
Ir       -0.65402123810185   -0.74522972674172    1.59978409889360
C        -2.72717425820475    1.29590656240669    3.40993999309555
C        -1.46657759129002    0.51429880645697    3.26622577337293
C        -1.26626121594951   -0.82701036296618    3.75743472867305
C         0.14220659821886   -1.08580661235002    3.77635279248051
C         0.76884136732888   -2.21605049817306    4.51758255656284
C         0.80539064873559    0.02179195825852    3.16661074509039
C        -0.19808310125782    1.03464356594696    2.88105748812080
C         0.06376774620262    2.43183965278980    2.50546248488860
C         0.90539722306729    3.20959771590088    3.29880019979930
C         1.11654344410323    4.54067485082293    3.00075885865197
C         0.50741581456567    5.13223353121009    1.89577208762370
C         0.73589213208887    6.55017436737070    1.58045455323505
C         0.94454916893069    6.96140114064562    0.26563654335186
C         1.16149969297777    8.29522912522717   -0.02788734506654
C         1.16664322484708    9.24008024566782    0.98560164711910
C         0.95668213842809    8.84216106042593    2.29598660355507
C         0.74600314379826    7.50801999393497    2.59244143686411
C        -0.32329645952453    4.34799344028615    1.09787936622861
C        -0.54917585680923    3.02097156504972    1.40264640332457
C         2.27884083339090    0.25546318157734    3.12581646743641
C        -2.29779556476623   -1.65838263496847    4.44181246156256
H        -2.82474081973871    1.59195617381536    4.45585270363104
H        -3.60214266977297    0.70290860569550    3.15460869930458
H        -2.69683817436614    2.20211359390324    2.81045403476727
H         1.84625398739068   -2.23386911684648    4.38592363884808
H         0.34849024996229   -3.17662460010243    4.22772118648984
H         0.56056495014319   -2.07701801769938    5.57976138830202
H         1.37779222606098    2.77562916048644    4.16595545586291
H         1.77765505864942    5.12754458106965    3.62082250972332
H         0.95964527197916    6.22824981039693   -0.52772747672381
H         1.32837471972005    8.59993856202366   -1.05094080678330
H         1.33304622648317   10.28217303935338    0.75481412493277
H         0.95612100008756    9.57573850001008    3.08909734283658
H         0.56744379028743    7.20760855469064    3.61451069272555
H        -0.80653824991343    4.78989732568261    0.23944087158585
H        -1.16942934076113    2.42152091110432    0.75361032366502
H         2.82471075137300   -0.66553047113307    2.94432873888427
H         2.52753820575684    0.97469454699188    2.34983263798598
H         2.60783362336524    0.65649647276054    4.08500046956828
H        -3.28667899984366   -1.48116733705157    4.02875846893040
H        -2.06430450414840   -2.71615800622397    4.35973981851081
H        -2.32256636312409   -1.39929109518268    5.50115444380247
C        -5.37135129212555    1.94522122883636   -0.07048352420661
O        -5.53405975625498    0.60231602174948   -0.50486911793885
C        -4.57508340237497   -0.28773786291127   -0.28656228012131
C        -3.37919677064000   -0.04709724161625    0.39526214866555
N        -2.45075588845516   -0.97935310686039    0.57545216167721
C        -2.63179079991702   -2.20953516706700    0.05249548808057
C        -1.47474273969574   -3.04987494998960    0.11970928362016
N        -0.39958501351738   -2.57862299361490    0.65389575221851
C         0.82898916743686   -3.31860442014119    0.40034018899748
C         1.99660283445872   -2.78599448070961    1.21917857697532
C         3.27710951040534   -3.55789610351533    0.90423299797588
C         3.61571683398586   -3.45207497066562   -0.57824571257483
C         2.45120432310898   -3.97221625690243   -1.41339710941268
C         1.17483024171299   -3.20001513526123   -1.09642391712751
C        -3.81074354848808   -2.55312806732857   -0.61619188718593
C        -4.78544694205743   -1.59640309789035   -0.77628131675698
Br       -6.41423158186692   -1.97301981666765   -1.67930246078763
H        -6.26706345322276    2.46383212581006   -0.40505518898860
H        -4.49176706964021    2.40077766993586   -0.52931352213242
H        -5.30304767945446    1.99800741486654    1.01788858419338
H        -3.16393108450081    0.93198750861319    0.79238879952367
H        -1.49434636403819   -4.01972508620961   -0.36606581045877
H         0.65754289287866   -4.37520364100218    0.64303539528143
H         2.13547736568063   -1.73292183013295    0.96904500943716
H         1.77023655705755   -2.88227426235780    2.27736224656712
H         3.14770448557337   -4.60845426517636    1.17383862532901
H         4.09885938804896   -3.16011485616503    1.50153040745123
H         4.51830365938358   -4.02411008051959   -0.79854776082794
H         3.80798244900275   -2.40865365305272   -0.83525470454828
H         2.67665376877338   -3.86669610973780   -2.47578374211764
H         2.30070069441013   -5.03452841738701   -1.20768034320095
H         0.35188975737939   -3.57859347543704   -1.70422883587307
H         1.31048512738154   -2.14411937643530   -1.33380749602290
H        -3.94359616802492   -3.54764840212059   -1.01011755636574
Cl        0.24807466723109    0.19685703452194   -0.38931459105200
