75
 energy: -114.475481836702 gnorm: 0.000919729758 xtb: 6.4.1 (afa7bdf)
Ir       -0.37708916587245   -0.42892913385782    1.43978763041658
C        -1.67500983115111    1.42699980949702    3.99290665707309
C        -0.49941670346836    0.74314892135466    3.38464008933469
C        -0.11292850634089   -0.61874839779283    3.64252526292761
C         1.17788250611404   -0.83356800208836    3.04328073023175
C         2.05868105313072   -2.00446144668563    3.30971081554695
C         1.52312068480825    0.33817386641065    2.31084702972873
C         0.47895018978055    1.33147778928647    2.53520832895632
C         0.60452024035572    2.76511205860189    2.22683825281560
C         0.60510795348807    3.68198811931963    3.27771968507397
C         0.78095104420152    5.02878198918974    3.03163824342181
C         0.96093725064081    5.50145227641010    1.73265402384759
C         1.16567508237835    6.93469816983877    1.47455894806869
C         2.10604944359308    7.35588398409425    0.53607322183574
C         2.30978606731503    8.70266926781942    0.29825629381655
C         1.57331733206541    9.65150704043249    0.98894190043055
C         0.63260501733300    9.24418299946539    1.92099106234399
C         0.43200228782593    7.89785202134814    2.16478533329264
C         0.95067126320557    4.58102930926507    0.68569123975327
C         0.77454250315230    3.23294168377860    0.92662309190134
C         2.83846923211698    0.62750439846073    1.67473979191065
C        -0.77669529683087   -1.52662234714204    4.62110361407544
H        -1.48427232687095    1.57798415711535    5.05586217320472
H        -2.57496391427385    0.82126519808998    3.90684536197574
H        -1.83848621717615    2.39855285243165    3.53370951810707
H         2.56624569203119   -1.84491302747969    4.26205456138210
H         2.81225213031914   -2.11936247992666    2.53674518191274
H         1.48741273354483   -2.92643483748248    3.38102193631381
H         0.49823925428985    3.33363289716479    4.29360589285008
H         0.80457479638287    5.72245545339299    3.85860872607377
H         2.69671100560635    6.62346784210297    0.00502598798982
H         3.04754007213005    9.01431599740603   -0.42728162924284
H         1.73195898803896   10.70341835496514    0.80144900930334
H         0.05320911482119    9.98061174860308    2.45920226514916
H        -0.31437638369115    7.59087759613638    2.88305248551638
H         1.06487160699163    4.92835407472202   -0.33020738810367
H         0.74234752461514    2.53807476907931    0.10161001765342
H         3.32636667959947   -0.28491929087937    1.34308648991833
H         2.71954417671868    1.29581939209962    0.82610390277758
H         3.48330541545859    1.11985312716001    2.40398821539645
H        -1.85271628623342   -1.37745167993570    4.62895950749219
H        -0.56327715179345   -2.56772143286539    4.39631798900348
H        -0.39814399067905   -1.31238598792160    5.62131894023082
C        -4.88819068620029    2.95181973511641    0.91335705261250
O        -5.28176881427502    1.71242293332535    0.34167403602618
C        -4.44183843596135    0.68542698921031    0.33660090690434
C        -3.15632114394852    0.67817530523235    0.88348753846575
N        -2.36663262172979   -0.39030134166410    0.85236814241367
C        -2.79635489565037   -1.52504556062275    0.25600181604882
C        -1.81893473870923   -2.56805413490689    0.21087729248490
N        -0.64521420657392   -2.29356012276026    0.68445909514917
C         0.36995067033488   -3.25491826341739    0.65501443461684
C         1.63894111039246   -2.89729409934127    0.19940584490040
C         2.64246144060378   -3.84320807275467    0.14529448885231
C         2.42105316385709   -5.15254174104639    0.56598738944680
C         3.51959200422797   -6.16441430221181    0.54670270817278
C         1.15290979816620   -5.49420432512323    1.03131020104045
C         0.13175959491478   -4.56705006163351    1.06834597410046
C        -4.07325250805488   -1.61294388050771   -0.30828715855253
C        -4.89401012352918   -0.51155670266141   -0.26452953996229
Br       -6.64079671866781   -0.54284912013980   -1.00850681769971
H        -4.68187897279932    2.84034500643269    1.97957691531595
H        -4.01759272527188    3.36092495237099    0.39735554904343
H        -5.74083963881212    3.61283795272864    0.77381545144319
H        -2.74887941545859    1.56301198856700    1.34760487656813
H        -2.04025596667377   -3.52224825813711   -0.25208195225111
H         1.80417212770189   -1.88855823659356   -0.14843344350742
H         3.61542817678511   -3.56383163447217   -0.23000578376316
H         3.96602423012802   -6.24212979897047    1.53833845704776
H         3.13772403247961   -7.14661451210703    0.27824247803164
H         4.30043306204285   -5.88189433911116   -0.15424274524707
H         0.96468483849893   -6.50388757035062    1.36549847110889
H        -0.84225029869806   -4.84242094162535    1.44399214139867
H        -4.39795949999465   -2.52717855586845   -0.77772718938924
Cl        0.01818459317584    0.23273861206087   -0.82529702252226
