72
 energy: -106.733780830825 gnorm: 0.000409767567 xtb: 6.4.1 (afa7bdf)
Ir       -0.41640445714924   -1.37814643607772    1.40016597612373
C        -2.04138969054721    0.52626438293305    3.76168941952849
C        -0.79234244682700   -0.09686669370340    3.23847219528520
C        -0.35614407543840   -1.41023568355554    3.64518657367482
C        -1.07363029137323   -2.26726745869167    4.63203172061388
C         0.99743846099677   -1.59013962231763    3.19234712710232
C         1.95378535984272   -2.64376330833175    3.63520110757769
C         1.34453164369255   -0.45546085003149    2.40982821240961
C         2.69924186187887   -0.17510552057904    1.85606693114646
C         0.23028531820308    0.48299969520377    2.43197633788087
C         0.36678622392847    1.89961696534497    1.94289047693116
C        -0.75496964921369    2.38623214446327    1.01977461700127
C        -0.43441862924953    3.79266364116095    0.52010664699874
C        -0.27302053759548    4.75365288451595    1.69558719642281
C         0.82357024362533    4.26550047532717    2.63825467921127
C         0.51758202520381    2.85597542897605    3.13699686585323
H        -2.88334087175881   -0.15974419734283    3.69555964144937
H        -2.28850817938653    1.44840369404125    3.24783500052601
H        -1.89146475781127    0.75675136707603    4.81756726229748
H        -0.73617584300377   -3.29788947679238    4.58069369996547
H        -0.87759094603077   -1.89407054568468    5.63813005930914
H        -2.14745839879265   -2.24321066633055    4.46805060538971
H         1.45855111059935   -3.39972404519856    4.23449941168618
H         2.43759172406133   -3.12699042152205    2.78900047286333
H         2.72759311924101   -2.17546677920987    4.24375002003918
H         3.31237518911825   -1.07121160692009    1.86448801182074
H         2.63503461792183    0.18946794278754    0.83275685913286
H         3.18718407892805    0.59042497965928    2.46014343771151
H         1.29122232262228    1.95070657474206    1.35975041452219
H        -1.70747568587683    2.42045606576235    1.54858879304068
H        -0.84791323314417    1.70253587642172    0.17390813027778
H        -1.23285438067616    4.14203506623534   -0.13735926208534
H         0.48901158946601    3.77282742116509   -0.06315711672752
H        -1.21736662291786    4.82478564533211    2.24044894739901
H        -0.02825810912548    5.75189490507784    1.32742665006895
H         0.91303400422741    4.94394251834138    3.48899805403524
H         1.77967207242531    4.26780180599009    2.10996179033476
H        -0.40323958342249    2.87169697331992    3.72022966105166
H         1.32261404128773    2.50945483230589    3.78758306426228
C         3.84879411416411   -7.79356242050561    1.73664490217350
O         3.56297728297604   -6.99387192644022    0.60511259595363
C         2.56623536712186   -6.08959141517549    0.67966204255402
C         1.77287177884539   -5.85689865588497    1.79472847061612
C         0.77693777905025   -4.89380197659301    1.77224249465618
C         0.53993842147942   -4.17104762551390    0.61243378722690
N        -0.50344083769828   -3.23994932118878    0.55917927719274
C        -1.43647460344704   -3.39861261436297   -0.32961743836284
C        -2.45027248018525   -2.39715777745822   -0.39823881465998
C        -3.53789205160115   -2.42761590900979   -1.27782565820821
C        -4.45693314526932   -1.40224051758520   -1.25728018540832
C        -4.25418682530458   -0.36267209709393   -0.34833369040637
Br       -5.48274665131460    1.08679847967170   -0.24102734903302
C        -3.15598778178478   -0.38349400309827    0.49701511824229
N        -2.27201363676239   -1.37549209412554    0.48167375310124
C         1.31599995084095   -4.40571857064034   -0.53027026865599
C         2.33713961434128   -5.33470757698110   -0.50475488714887
O         3.16159491822668   -5.61379666004971   -1.53922252716168
C         2.98105206134898   -4.91559388598075   -2.75514356300633
H         4.15851655027881   -7.18134210702165    2.58778562094354
H         4.67248590814911   -8.43701833515550    1.43451417142175
H         2.98899951669047   -8.40952287245467    2.01416909673145
H         1.92215973719444   -6.42995418598202    2.69442535250723
H         0.14487600828370   -4.74492494121380    2.63097959992880
H        -1.45187567724516   -4.26124324127805   -0.98491908132276
H        -3.64187733182046   -3.25022600467916   -1.96675919095819
H        -5.30694849404131   -1.39689788905177   -1.92069687781074
H        -2.99541980598383    0.41899274426689    1.19971322929720
H         1.12565519901267   -3.80811038431105   -1.40648902738802
H         3.74460707772838   -5.30093294992472   -3.42768553284451
H         3.12272436230267   -3.83963703295187   -2.62119854387896
H         1.99206389986436   -5.10806451366120   -3.18016796843234
Cl        0.36491615663693   -0.73520269243731   -0.75953559999963
