59
 energy: -101.036786663057 gnorm: 0.000478988555 xtb: 6.4.1 (afa7bdf)
Ir       -0.71052827937679   -1.34830558252232    1.78572967848569
C        -1.97895177118489    0.72740549985120    4.20578424305248
C        -0.81725613119558    0.06395078218170    3.55063499316619
C        -0.24554944845606   -1.18468891952187    3.97693012962039
C        -0.70037486875294   -1.95928668386762    5.16702473586750
C         1.00764106887475   -1.36033222302800    3.27640934519549
C         2.05683122381314   -2.36887236760988    3.59840916175648
C         1.16210500409951   -0.27419732782473    2.37694237023870
C         2.36793981743743    0.03939130082249    1.56490427024353
C         0.01114228673143    0.59950072714626    2.51798373472859
C        -0.09352209812475    1.94494313371904    1.88426149325168
H        -1.65624003496044    1.10260592279773    5.17775882904768
H        -2.79601608109344    0.03045182126482    4.37553136388280
H        -2.33690418444184    1.57199507799449    3.62482635179917
H        -1.78456258611531   -1.97802484874935    5.23431516475239
H        -0.32192767153428   -2.97680654928999    5.15338706356248
H        -0.31953549404297   -1.47247592532996    6.06591552364329
H         1.65399800301849   -3.19645287578834    4.17247043123524
H         2.52532534480584   -2.75900521586351    2.69724853498701
H         2.83083685563561   -1.88498769925397    4.19509911074539
H         2.08806849477313    0.36154906228441    0.56417210875704
H         3.02362090009615   -0.82239255449214    1.48304120246175
H         2.91698936161417    0.85376255053198    2.03845164314226
H        -1.09747544547371    2.35087993790031    1.96359828387045
H         0.17870295996200    1.89198318530370    0.83269679393793
H         0.59730719537382    2.62991549273821    2.37689445596984
C        -7.25434149133714   -0.82686203836926   -0.84968329710009
O        -6.25513845807495   -1.83808759631648   -0.86868327195455
C        -5.12520495139579   -1.65722270518536   -0.19820647173894
C        -4.78980464418574   -0.52050876252547    0.55638709404007
C        -3.57364083780104   -0.46959984760795    1.20208825786772
N        -2.68097698611715   -1.45647020422451    1.16853878031605
C        -2.98445807794491   -2.56201602830919    0.43492081803452
C        -1.94455097549140   -3.54937905112411    0.42308516759042
N        -0.89744356525987   -3.30147283510335    1.14435999483102
C         0.19864527225944   -4.18808869627609    1.11245631997922
C         0.94611435410630   -4.32630332452606   -0.04995486024303
C         2.05573828719191   -5.15725270075347   -0.05900115911921
C         2.84221781463768   -5.32430363538841   -1.32462940166283
F         4.13874076335353   -5.60211689968234   -1.10568508839852
F         2.81618549968496   -4.23592438975192   -2.11226199397628
F         2.37179641041595   -6.33913970981590   -2.08707916425514
C         2.41289673123275   -5.87182893337040    1.08185564161559
C         1.65959369796320   -5.74870097723083    2.23026730101340
C         0.54225267883911   -4.91522914936101    2.26534325370730
O        -0.17459788553997   -4.84722850705991    3.39431615693247
C        -4.18281238417590   -2.69308531882691   -0.24647003939104
H        -6.88442638823076    0.09739939548870   -1.29820036238204
H        -7.60284039433134   -0.63993175754463    0.16798498553370
H        -8.07331425440149   -1.21944541458553   -1.44801838093882
H        -5.46007973482879    0.31827835993729    0.63897764492069
H        -3.30707705454033    0.40360086307406    1.77714969990091
H        -2.03191482436680   -4.45366283990394   -0.16802660370349
H         0.67690654886340   -3.75049576332652   -0.92177548369714
H         3.27639413013421   -6.51742318235500    1.06402436481946
H         1.91547943070484   -6.29987924325375    3.12020167063071
H        -0.97915950193963   -4.31853329052306    3.27792962993742
H        -4.39512579957573   -3.57681170844919   -0.82473642429092
Cl       -0.29976883132395   -0.90240482913702   -0.52965579619848
