77
 energy: -123.781466841366 gnorm: 0.000515875708 xtb: 6.4.1 (afa7bdf)
Ir       -0.36021309146118   -0.13847138251552    1.80323917877018
C        -1.50799826255520    2.00259198783978    4.29509686240603
C        -0.44336474985441    1.13625352444071    3.72182346362233
C        -0.29919896163775   -0.26727849770010    4.02645708820320
C        -1.18012432408025   -1.01915428539202    4.96580223842298
C         0.98121266067910   -0.69328983322655    3.54525106057104
C         1.65667533492121   -1.97226907546883    3.89200629582552
C         1.55166646071174    0.38033738087329    2.79961622029979
C         2.94599624078209    0.42795616351229    2.28008388165012
C         0.67268378564690    1.53489478471921    2.94125984366437
C         1.05370689568654    2.91122935813862    2.58627362173070
C         1.10497826899212    3.88137571274598    3.58615868397337
C         1.51053421329216    5.16186535821150    3.25998397877218
F         1.56009750126059    6.09265534252279    4.23602576541549
C         1.86642633199040    5.52741388497167    1.97431374765586
C         1.80127558645611    4.54204075873078    1.00423205537397
F         2.13210336064769    4.86352788603073   -0.26315756505574
C         1.40670484726240    3.24783564306061    1.28118567140634
H        -1.47498988623003    2.99921510210594    3.86854591734690
H        -1.35110889533329    2.07699539538094    5.37189926059852
H        -2.49423213437223    1.57431137330544    4.13690896754175
H        -1.10514389719274   -2.09019123422353    4.80279403308321
H        -0.87422894943964   -0.81007536535894    5.99154491633834
H        -2.21709392847908   -0.71570522728150    4.85437993884317
H         2.22467710765855   -1.82251612155486    4.81093910986647
H         0.93827294984973   -2.76821684023713    4.06481041677824
H         2.34977723334489   -2.28295790740039    3.11554787016876
H         3.28201855077440   -0.55836731848301    1.97371491758066
H         3.03065260445819    1.10866296982969    1.43873325004199
H         3.60663275960284    0.78385846823496    3.07122065397729
H         0.86068224231260    3.64721377206185    4.60926166142105
H         2.18087439170526    6.53047115607838    1.73942162164110
H         1.34558740992803    2.52361391293672    0.48385236962016
C         0.10876041706132   -6.92594348757661    2.33535120142974
O         1.31059153781155   -6.43443075963328    1.76826944613720
C         1.36303922274616   -5.15466107801907    1.35767979423064
C         0.32820103951743   -4.23019238825077    1.44752229143144
C         0.50014062064060   -2.91962333295445    0.99161513608610
N        -0.56298295456545   -2.00682479434451    1.08040039722044
C        -1.75209545681571   -2.36589196808087    0.73260914867282
C        -2.82672935684474   -1.42457413813242    0.86320518241352
C        -4.13865736351226   -1.81457271420509    0.65489355960512
C        -5.14283334899883   -0.87444256380605    0.86995634730552
C        -4.78707188796411    0.40588346228782    1.20005233380406
C        -3.42277558361269    0.78940591493078    1.30851512664918
N        -3.09437189379116    2.07758303869027    1.54301491919776
C        -1.97642360504184    2.72057488772180    0.87633501392111
C        -2.47428454254116    3.45822385740803   -0.37041302275386
C        -3.53029124891181    4.49519090736325    0.00206440393972
C        -4.66563471963033    3.81926524232685    0.76784752493083
C        -4.08152950044708    3.06160761448266    1.96146243633813
N        -2.46118428590776   -0.16210298626301    1.21971556627690
C         1.71557795843195   -2.51457002495393    0.45033926399523
C         2.75072234785132   -3.42757799029958    0.34169805251888
C         2.57292559822946   -4.71866273621147    0.78930984759638
F         3.59100751181258   -5.59745163732984    0.68574796537563
H         0.31118420984889   -7.96718740605401    2.57594634931208
H        -0.14564663477025   -6.38444445636561    3.24954275159160
H        -0.71582865419556   -6.87186709034660    1.62029353436726
H        -0.61203492744584   -4.51143184810977    1.89310975170841
H        -1.94959598066301   -3.35129907240636    0.32535482111624
H        -4.36411950261503   -2.82230263467628    0.35166017518831
H        -6.18103293191221   -1.14121635439255    0.75272411929749
H        -5.55567805786688    1.14790203010797    1.32236819998226
H        -1.51653845489012    3.43437289944158    1.56258312623109
H        -1.23817162299179    1.97916047396137    0.58396903555215
H        -1.62471218346586    3.93646784681923   -0.85824743981586
H        -2.89701186253032    2.73401289945241   -1.06977580404961
H        -3.91548600401033    4.97719670840832   -0.89746904599146
H        -3.07769033219579    5.26926310450681    0.62564267957354
H        -5.18886936416720    3.13042093155647    0.10245483200204
H        -5.38161512296579    4.56159989737934    1.12143069495264
H        -3.55425255242931    3.77610330718222    2.60017977750097
H        -4.85692243356609    2.59103844523779    2.56360320395810
H         1.82933898815670   -1.50940614104393    0.08034512358429
H         3.69760834738502   -3.14898069446383   -0.09165548105366
Cl        0.22519191444988    0.38817098176749   -0.47374333887961
