60
 energy: -103.373096501833 gnorm: 0.000802648512 xtb: 6.4.1 (afa7bdf)
Ir       -0.36632473868376   -0.77700881677399    1.16108407997183
C        -1.59910691232982    1.47917068023893    3.49964100191932
C        -0.48361384746993    0.65794066487511    2.95218593454504
C        -0.19430251143029   -0.69039860004923    3.37853677399760
C        -0.94116002993198   -1.42609502485626    4.43754907248314
C         1.09915437855132   -1.05390772104778    2.85749983112353
C         1.89525854541836   -2.23647060243838    3.28508051789685
C         1.53793439172689    0.00065903740726    2.00872439545305
C         2.87126104528630    0.13471632028056    1.35950624115399
C         0.55426699551577    1.07077810983529    2.07431308401242
C         0.78346645084355    2.42843810050192    1.50161411325289
H        -1.38459015445829    1.69463701476150    4.54699991213632
H        -2.54522995506388    0.94494114528494    3.45795363378435
H        -1.70575887831435    2.42040816050614    2.97096757120935
H        -2.00234635366038   -1.19730570022333    4.39929612955643
H        -0.80421863763384   -2.49970601443744    4.34432992499976
H        -0.56438274421492   -1.12255570830265    5.41506388083026
H         1.25819402739408   -3.08132294914946    3.53118048749151
H         2.60511381366312   -2.54022357789546    2.52083669443774
H         2.45747782737365   -1.96546892125321    4.17958229323292
H         2.76968167062187    0.55158975359253    0.36005400778241
H         3.37747993184719   -0.82373852827550    1.29387009328021
H         3.48944968033733    0.81376271379274    1.94707076903263
H        -0.06639403700706    3.08425690551701    1.66538887236752
H         0.98374833066530    2.36575829337944    0.43309113502346
H         1.65861119234784    2.87144955765437    1.97697910193384
F         3.75527331353899   -7.33330028070146    1.34841625670003
C         3.87248085417694   -6.27668035256967    0.53145977999256
F         5.02516374725788   -5.66436906557079    0.86565977606674
F         4.06676191262254   -6.77665261988817   -0.70714066178064
C         2.69523540764235   -5.34439305323087    0.58634485406357
C         2.79629145566763   -4.10818344043979   -0.04635808554882
C         1.72591716672967   -3.23652976013470   -0.02244469812498
C         0.54204447373276   -3.60754060524129    0.61632514507678
N        -0.53959801165877   -2.71725613506848    0.61523996451347
C        -1.72271767492475   -3.13273043466540    0.28139045550463
C        -2.75959531813565   -2.15318084490564    0.22343176464837
C        -4.08352841936984   -2.45820351505614   -0.15468879869599
C        -4.99688568571514   -1.44927466946466   -0.25768951445897
C        -4.57563419621269   -0.11387049223541   -0.06135319916621
C        -5.44706628866727    0.97562612002076   -0.23907649158148
C        -4.98246514445353    2.25967096454598   -0.10423319229299
Cl       -6.04742440007876    3.60343787647581   -0.33675347747826
C        -3.63032892160455    2.50456779781673    0.19661832214536
C        -2.77283593840009    1.45965845957463    0.40123959494915
C        -3.21647210368187    0.12592516359283    0.30044023277810
N        -2.35754299704418   -0.90145663006154    0.50771464408885
C         0.44748040440056   -4.84746896472026    1.24805680484689
C         1.52493440655805   -5.71382377451486    1.23723484535920
H         3.71083462238491   -3.83602869042403   -0.55048658288691
H         1.78096402432049   -2.27956971148446   -0.51835743804174
H        -1.90417433025456   -4.15741986586196   -0.02147828703042
H        -4.34874463873749   -3.48463115376784   -0.34799419337019
H        -6.02592525366141   -1.64774112512880   -0.51296540480210
H        -6.47633322220181    0.78694504474885   -0.49880902313438
H        -3.28220547629771    3.52318079517870    0.25324862739881
H        -1.72585129777878    1.63679885782084    0.58507527325988
H        -0.45885557664746   -5.12350309980588    1.76369092797703
H         1.45774205844438   -6.67088737332867    1.73036217088796
Cl        0.16149456665814   -0.17505371442975   -1.08591094478153
