76
 energy: -128.165433178631 gnorm: 0.000350530439 xtb: 6.4.1 (afa7bdf)
Ir       -0.64604091321681   -0.32940416736668    1.76091906773638
C        -2.00570012508678    1.52476018439717    4.29771782661703
C        -0.87539458449078    0.71609369162861    3.76641796079463
C        -0.74372507747805   -0.70410299743170    3.95900494015868
C        -1.68220414990122   -1.54791094175656    4.75256935653697
C         0.56688638206094   -1.08696274735529    3.52359277667296
C         1.22497403687199   -2.39601690868238    3.77529967929920
C         1.19808137282138    0.05497222722389    2.94762726286884
C         2.63104051929333    0.11846755228445    2.55088744724405
C         0.30487344837042    1.19058899115336    3.11848728692624
C         0.71186397172238    2.59330830118363    2.94185669669563
C         0.60498545764694    3.47665138345281    4.01495309695217
C         1.03112974411966    4.78208846589098    3.85633555537017
F         0.92179357538174    5.62788076550083    4.90140326795215
C         1.56161304924487    5.25521854546593    2.66996061847664
C         1.65308887827917    4.35427583716948    1.62257345324463
F         2.15639448962751    4.78284294476954    0.44773637943301
C         1.24299267931840    3.03996376682075    1.73156604043849
H        -2.00049912842509    2.52981694352930    3.89013165805609
H        -1.91106276829758    1.58768024798270    5.38266695255858
H        -2.96088096568291    1.05249299841340    4.08149558673817
H        -1.57571133236382   -2.59859239236907    4.49879682125634
H        -1.45792190523958   -1.43223420402015    5.81364668784966
H        -2.71325719549959   -1.24647709983402    4.59158234387768
H         1.72156828536355   -2.35062974229327    4.74554114256066
H         0.50563325462837   -3.20946960124525    3.80338752557691
H         1.97891746874581   -2.61203475634128    3.02336730092090
H         2.89670232801686   -0.71789318574928    1.90877200298694
H         2.85860775650183    1.04498712807582    2.03376536670162
H         3.24890146296012    0.06104178209078    3.44791997377718
H         0.22300812274722    3.15726069609854    4.97028561996585
H         1.88871514597060    6.27610829814719    2.56551960906472
H         1.29713748495080    2.38692656027351    0.87418094067671
F         2.82536536610664   -7.23036719160613    1.25839693978710
C         3.06983470660683   -6.14062333454223    0.51458453979874
F         4.28123114797518   -5.68926049858525    0.88985454529213
F         3.21474682280723   -6.57715049955593   -0.75457336262041
C         2.00452195121422   -5.08795117728359    0.63389438861583
C         0.75624154787511   -5.40073496806592    1.15748582460832
C        -0.21535444771840   -4.42075508261504    1.23503793456832
C         0.05574199193007   -3.12484258885750    0.79173770835248
N        -0.93439023118403   -2.13356381188128    0.88062216461671
C        -2.13176529548332   -2.38840814633235    0.47434214424800
C        -3.15005002878332   -1.39472090387210    0.65164056345371
C        -4.48360742377378   -1.71853924251035    0.47677081563572
C        -5.43844371897872   -0.76235473085671    0.82167550986589
C        -5.01819750287250    0.48648043893370    1.18678652084741
C        -3.63334852794861    0.82594913686071    1.18373221522092
N        -3.26127101079393    2.10583983923964    1.31984763451038
C        -2.01821779299427    2.61337434780224    0.76986460618238
C        -2.30628063845193    3.82482446309811   -0.11453837745049
C        -2.83440291843939    4.99141617430567    0.72762197109133
C        -3.52907821323040    4.45469289290130    1.98231972794401
C        -4.23159874855127    3.13371244052844    1.68917218242862
N        -2.71350617400507   -0.16502262456573    1.04710896802628
C         1.31508327551605   -2.81769253331721    0.27818322387413
C         2.28334816959878   -3.79863372773664    0.19050703225945
H         0.54947176176421   -6.40104863108864    1.50432574683885
H        -1.17999189455214   -4.65596489012918    1.65701959232220
H        -2.38042581559250   -3.33366066500513    0.00322138639351
H        -4.76483895840642   -2.69718898171069    0.12848915156985
H        -6.48991086132827   -0.99782215676752    0.78261676973691
H        -5.74601372469029    1.23827469220531    1.43273653127941
H        -1.55317380573673    1.83210694988028    0.17284074247758
H        -1.33308451497459    2.90796749840425    1.56579654073706
H        -3.03537491727384    3.54222358908757   -0.87507832472200
H        -1.39018319167584    4.10892765825218   -0.63120405201635
H        -3.53078675810043    5.58523358626126    0.13515327615693
H        -2.01564504665512    5.64879310438472    1.02158506763122
H        -4.26753247590562    5.17164533664592    2.34055586236844
H        -2.80105831490497    4.31475983304140    2.78177768799702
H        -4.76801068524919    2.80823441392664    2.58316770106845
H        -4.95125260653074    3.29387564276531    0.87850116150702
H         1.51320680670519   -1.81842283797328   -0.07604113466966
H         3.25580130673673   -3.56951557107320   -0.21708579516781
Cl        0.21297562098752    0.30475819026404   -0.38037657866735
