68
 energy: -119.164933922895 gnorm: 0.000482157116 xtb: 6.4.1 (afa7bdf)
Ir       -0.36321025192820   -0.50458818022593    1.64736494791597
C        -1.80778464535598    1.37916931862823    4.12380741708898
C        -0.57858861319344    0.78959547079817    3.52629600034184
C        -0.05294416604158   -0.50647175803940    3.85854525569795
C        -0.60946103435530   -1.41614761631517    4.89950948535836
C         1.24398339532824   -0.62908774634028    3.24621763595698
C         2.26432375796664   -1.66259435469541    3.56959049952680
C         1.46593804212487    0.52392575292870    2.44323315449036
C         2.75206924919323    0.86537016152490    1.77733781008932
C         0.32785728640980    1.41443216816008    2.61783040808415
C         0.31567612305970    2.82784871268208    2.20524170641231
C         0.17478253136166    3.81849741002694    3.17630726172595
C         0.22401264040379    5.14531062180439    2.79310901952976
F         0.09269586073053    6.09657516392162    3.73996046515013
C         0.40434851811514    5.53676539660817    1.47839229390148
C         0.53517855827971    4.52974256744429    0.53785069561429
F         0.70776681794224    4.87362522846644   -0.75404911392598
C         0.49511914975064    3.18916806640416    0.87097708625208
H        -2.08924309786626    2.30144193160249    3.62509148789954
H        -1.61845624563953    1.59160830727015    5.17664370685455
H        -2.64214520833622    0.68300285102070    4.07731181323380
H        -0.28743320216487   -2.43990915160714    4.73302321463098
H        -0.24578366396716   -1.10264191574533    5.87860900809205
H        -1.69472370161027   -1.37811970303045    4.91455914746007
H         2.81322403117616   -1.33581905258548    4.45372092217984
H         1.81045258017392   -2.62429857660219    3.79006028793260
H         2.97542745230945   -1.78313329393065    2.75807384080244
H         3.10942349137210    0.03986890985630    1.16609224586863
H         2.64881327190694    1.74426344834690    1.14890115526083
H         3.50545640510106    1.06626813863299    2.53962980485130
H         0.05718273247010    3.57134912568399    4.21834930678973
H         0.44415650058361    6.57659725864966    1.19976140838063
H         0.57847707864149    2.44110850424561    0.09711829487558
C         0.61714143201364   -6.99764174824691    3.26907730997027
O         1.75928459982073   -6.52406330648663    2.57332719685386
C         1.69870234559169   -5.34822133785918    1.92956173118153
C         2.86312178883731   -4.96274476538772    1.25220103967465
C         2.88142375708548   -3.76369399783575    0.57446516502159
F         4.00670188035423   -3.39920176734318   -0.07185150625049
C         1.79688295478750   -2.90421562240963    0.54499556320751
C         0.64086411758430   -3.30113598495930    1.20794092560599
N        -0.47618990460394   -2.45246687992525    1.16870568933752
C        -1.64206851496498   -2.92540120358886    0.85901710585727
C        -2.71891675963099   -1.98947011291843    0.77069279459528
C        -4.02404360450647   -2.35823677769445    0.38738897478870
C        -4.97920316080814   -1.39074456890198    0.26150176941768
C        -4.62289280229772   -0.03758154538596    0.45903579494387
C        -5.54765973180747    1.00711001659737    0.27975524928389
C        -5.15294222707568    2.31225604018934    0.43158636418048
Cl       -6.28094619842255    3.60184285583544    0.20183403247144
C        -3.81871099382547    2.62189498466488    0.75387971015999
C        -2.90891413971819    1.62171312448942    0.95395201269166
C        -3.27850751870187    0.26729021387159    0.83107344803833
N        -2.37252353551435   -0.71837246863879    1.03590474188338
C         0.58263429832458   -4.51278310383150    1.89686594428263
H         0.91507836225015   -7.95446711918815    3.69210495386461
H        -0.22485787036493   -7.14804739864625    2.58934916922426
H         0.33530082176577   -6.31738041777006    4.07594936770356
H         3.72759103119311   -5.60497622799214    1.26688611186163
H         1.82889400900740   -1.97990042871726   -0.00827384178468
H        -1.78421275886644   -3.96913218464422    0.60493002091521
H        -4.24291122668646   -3.39737908459389    0.20391454300972
H        -5.99465028758826   -1.63658397943476   -0.00710179953432
H        -6.56353236283253    0.76816314655179    0.00859731643945
H        -3.52215665060378    3.65498480601151    0.83456319482994
H        -1.87887682126096    1.86212853150860    1.16023637423908
H        -0.32312358125246   -4.77350020634396    2.41892527822046
Cl        0.05754260879302   -0.01022864654019   -0.64266142051276
