74
 energy: -113.919647667691 gnorm: 0.000323730422 xtb: 6.4.1 (afa7bdf)
Ir       -0.50055201519149    0.45978927720542    1.04594650197938
C        -1.35020806089726    3.61461678202704    2.02506708142814
C        -0.59906034827006    2.34478329952958    2.25744708400689
C        -0.98824087316789    1.26170374554657    3.05169153796669
C         0.14840802216968    0.34387281212606    3.16170799988177
C         0.17477952089258   -0.88428007582716    4.00566880470465
C         1.22268576398315    0.88763588784389    2.45213318836562
C         0.90695598361935    2.31800639531324    2.06192531432470
C         1.63795434901022    3.39237181904447    2.81991278764143
C         1.77799296578414    3.24030765368537    4.19675763036039
C         2.38450609621746    4.22293438941335    4.95217635944776
C         2.86750400180417    5.38619710665804    4.35498989046993
C         3.50586736199869    6.43692982655961    5.16194445503744
C         4.64653265646104    7.09175651304945    4.70219118293723
C         5.24713332242572    8.07727614815768    5.46400127863608
C         4.71401769840455    8.42965554784264    6.69322356915159
C         3.57727637054576    7.78816607303180    7.15773247355915
C         2.97931578229596    6.79748789274078    6.40066158117661
C         2.72258465423013    5.53081567341613    2.97771394186168
C         2.11052903802324    4.55042583955886    2.21908148001732
C         2.63504261915317    0.40771656704373    2.46648398389207
C        -2.27366578378262    1.09906506663918    3.78821370700186
H        -0.99547136775731    4.37371452570543    2.72439007147739
H        -2.41694289883314    3.48352021233806    2.18096906658250
H        -1.17224205809095    3.99069493837714    1.01876008151844
H         0.37992020058882   -0.60234551032222    5.03848542928994
H         0.95582579249113   -1.56313899395133    3.67618187338458
H        -0.78013253664719   -1.40129700079417    3.98109243159757
H         1.40554272878659    2.35017702399068    4.68030836911035
H         2.50060597339457    4.08181781153395    6.01599963824329
H         5.07702032259366    6.81245023962285    3.75171626342021
H         6.13527309973487    8.57241059124040    5.09888776658930
H         5.18282613689152    9.20068026814423    7.28672384267332
H         3.15534692639999    8.06246111617146    8.11370737415595
H         2.08376116356271    6.31442215103876    6.76325588381679
H         3.07287362330206    6.43133790158892    2.49632121587897
H         2.00478320388390    4.69564764016961    1.15529604745819
H         2.68610996372254   -0.67729712187859    2.44514146528297
H         3.18399841066577    0.80767456831487    1.61746674821507
H         3.12830445329768    0.75795215221507    3.37480127132451
H        -3.06840023187689    1.68124399271836    3.33245284279689
H        -2.57659378205869    0.05664302380366    3.82602767133725
H        -2.13816533592152    1.44964827709086    4.81167914940623
C        -7.40647482959055    0.75394070787938   -3.69855136189458
O        -6.27865109044087    0.84091278268314   -2.82996470478572
C        -5.39954439988547   -0.15682114708672   -2.87165352236013
O        -5.50012912163005   -1.12582332881011   -3.58952893501996
C        -4.27052578334150    0.05045161027302   -1.92184624753647
C        -4.14834852266499    1.20920878420777   -1.14230896938057
C        -3.07780457652360    1.32731109111464   -0.28393076537797
N        -2.13597858610435    0.38677601644412   -0.14711732598743
C        -2.24173517928666   -0.74271652715221   -0.91311673296255
C        -1.16919491089274   -1.66121661859112   -0.71784133507307
N        -0.23069557187872   -1.29122092395072    0.11286750693357
C         0.85217213263145   -2.16573326171164    0.32546947181855
C         0.63934409971478   -3.47099970973359    0.76311570186092
C         1.71883467313986   -4.31267110767474    0.96262258717380
C         3.00762809308172   -3.86885628284517    0.70913586860564
C         3.21756982073916   -2.57440253369037    0.25873092979486
C         2.14688725586091   -1.71896162176851    0.07432221858687
C        -3.29852751444370   -0.92927883064253   -1.80379003133738
H        -8.10977197775176    1.50696324481766   -3.35390804684342
H        -7.10163942614785    0.95566356070744   -4.72679354327425
H        -7.84601523368039   -0.24354528179246   -3.64861295903920
H        -4.88395295211077    1.99190528628997   -1.21380687432955
H        -2.96374561177601    2.21134963087388    0.32424041106112
H        -1.11821887127658   -2.60030987980569   -1.25423901978092
H        -0.36594857486981   -3.80792245592517    0.96392639104312
H         1.55321856245734   -5.31986704568227    1.31280200165713
H         3.84650527095056   -4.53078606960552    0.85980826852026
H         4.21885753090322   -2.23024662222746    0.05022335503274
H         2.29530398266169   -0.71580270911568   -0.29318741513967
H        -3.36431973283213   -1.82615419358209   -2.39901399805700
Cl        1.20451513123874    2.43043538840029    0.25217773861894
