95
 energy: -142.628400893973 gnorm: 0.000302166667 xtb: 6.4.1 (afa7bdf)
Ir       -1.07905305052707   -1.30367905000815    0.96675940723558
C        -1.62472179737895    0.54763115161709    3.76833364445635
C        -0.65423186990552   -0.16300135741519    2.88784643088165
C        -0.28133329091625   -1.54219294210262    3.02564010133068
C         0.80761353753241   -1.80090926781084    2.11596257754927
C         1.67791072943052   -3.01040030663040    2.13804999721572
C         1.03681097131337   -0.62239333123774    1.35666400548427
C         0.12382313904484    0.40320350487350    1.83118190089767
C         0.25679720603192    1.83113134828219    1.50693581080529
C         0.44326241563320    2.75737458395486    2.53283081980157
C         0.63672472763249    4.09318767917543    2.24383245984983
C         0.64650365227550    4.54771478357773    0.92578304199959
C         0.87315058384088    5.96881657472154    0.62263439822181
C         1.67985394043205    6.34416656662982   -0.45016827601906
C         1.90247153772942    7.67993625308082   -0.73025105100552
C         1.31776511886006    8.66347546376231    0.05100688634129
C         0.51251308364607    8.30211729135021    1.11883791219036
C         0.29556278260885    6.96688587043187    1.40524555252084
C         0.44999202773051    3.61919869730547   -0.09590016381635
C         0.26356430281334    2.28100035258620    0.18703894678706
C         2.15017418159922   -0.39122050496473    0.39280365228929
C        -0.72305986456858   -2.45062568925612    4.12313703542556
H        -1.18131134234401    0.67705261189708    4.75618014499608
H        -2.53994432327527   -0.02769023912465    3.89133776735258
H        -1.87509220434131    1.52429672470751    3.36501307135436
H         2.47625686138179   -2.84998211767962    2.86412946227598
H         2.12819876048643   -3.19263456635480    1.16643019592696
H         1.12353694318287   -3.89587869607359    2.43634499091010
H         0.47317374346128    2.42374054760935    3.55837848833071
H         0.81042777351826    4.79089860686603    3.04931166951937
H         2.15445171957865    5.58455055453874   -1.05428080892259
H         2.53630746024610    7.95621242731582   -1.56057021289044
H         1.49059136940229    9.70653167137795   -0.17024338295108
H         0.05305505885736    9.06500080828539    1.73064264204561
H        -0.34068301437308    6.69564973491846    2.23484253569126
H         0.43111095910945    3.95202718119659   -1.12286266110545
H         0.09950989487306    1.57882255752154   -0.61654956264010
H         1.80627215197686   -0.50768838259402   -0.63454471990466
H         2.52428024995345    0.62534131978562    0.50065478394230
H         2.95931285714803   -1.09543305804201    0.56471643903688
H        -1.73283080086763   -2.21396615975617    4.44644457596833
H        -0.68340234226525   -3.49131667344027    3.81174079556366
H        -0.05540891540772   -2.32997420715210    4.97705764124026
C        -6.59573449212208    5.92867572112967    0.94837055026194
C        -5.47758931611661    4.89837102581389    0.96099818598299
O        -6.07865474344896    3.60748514300117    0.93850786438925
C        -5.31752506169849    2.50675061216342    0.90651973318682
C        -3.90289404301075    2.50290646688363    0.89135768967099
C        -3.20598111738455    1.32733473113783    0.86651964824309
C        -3.86237105045227    0.08258262646668    0.84348690333979
N        -3.16143578775497   -1.07418493892072    0.81690335623381
C        -3.81970918241269   -2.23222486850454    0.64751394911187
C        -2.97885546923295   -3.37432212830011    0.47806892828448
N        -1.69952146941824   -3.17921592488003    0.51625249061949
C        -0.82014644529407   -4.25169315438868    0.32480799699735
C        -1.02653997604739   -5.46665564490077    0.98028299154354
C        -0.13831103914609   -6.50551472835455    0.77245556750872
C         0.93667313047978   -6.35129560414730   -0.08529552589712
C         1.15300736333864   -5.14206620604817   -0.74958575106043
C         2.28889461056238   -4.97788293891461   -1.66673512560522
C         3.52295437558524   -5.55948715717053   -1.39275097871049
C         4.59543267951819   -5.41499706875762   -2.25427256651963
C         4.44996621917446   -4.68577370384256   -3.43085315327214
O         5.42866917547732   -4.48266428838416   -4.35266486842976
C         6.70468949827431   -5.04344671985019   -4.12511112287836
C         3.21230300540236   -4.10106951940304   -3.71473392879817
C         2.15514422278048   -4.23966845171169   -2.84452288261777
C         0.26956508172829   -4.09061239352425   -0.52550299823960
C        -5.22840242207958   -2.30643307968196    0.60152603610878
C        -5.96057364391379   -1.16307365299353    0.71698841187702
C        -5.29286131273872    0.08082348110389    0.81829150397962
C        -5.98515235109025    1.29203985758471    0.86898377603689
H        -6.17080894674397    6.92764405014809    0.97537026766643
H        -7.19275200784534    5.82167753919385    0.04704652012306
H        -7.24066980843212    5.79218991771535    1.81180254684342
H        -4.87208834018215    5.00624965898069    1.86904529485742
H        -4.83579166291691    5.02641560426094    0.08093469262372
H        -3.35602063201369    3.43187163845396    0.88885320314689
H        -2.12998908682095    1.34717066921248    0.81441076101743
H        -3.40147812092434   -4.34910149772476    0.26303179256334
H        -1.85484887095263   -5.57815812215376    1.66290954502847
H        -0.28908150441667   -7.44553286638313    1.28060031099932
H         1.60644483594103   -7.17925334723542   -0.25582822551127
H         3.66412937771597   -6.11746002287312   -0.47909048939607
H         5.53715575802272   -5.87445443912894   -1.99943256916227
H         7.30834772266884   -4.75272163559701   -4.98285116804565
H         6.65706479294326   -6.13505399007108   -4.06844298117999
H         7.15685362029579   -4.64627428115858   -3.21140492050926
H         3.10876240550885   -3.54248909528239   -4.63162897560286
H         1.20574322327326   -3.79061023607997   -3.09258754938180
H         0.40710389296260   -3.14147227075435   -1.02057660508397
H        -5.69449852112052   -3.27022467119517    0.48016639476311
H        -7.03889559206183   -1.18301414191958    0.70857129511246
H        -7.06312698795408    1.29282392242526    0.85757032406717
Cl       -1.02499691075790   -0.80893719355681   -1.36421309256775
