77
 energy: -125.577769783381 gnorm: 0.000733985002 xtb: 6.4.1 (afa7bdf)
Ir       -0.88059941942938   -0.54154574353019    1.22065009905137
C        -2.03622531734301    1.03359803411559    4.02439636307033
C        -0.88607996536584    0.47548373358204    3.26312531093914
C        -0.42971841090764   -0.87699817591600    3.38544456894165
C        -0.98355124592395   -1.89143528830665    4.32766386550267
C         0.80581953286424   -0.99638794767699    2.65846129115588
C         1.75851432664592   -2.13698881125165    2.75042176572160
C         1.06485160820492    0.24930467556810    2.01793460222132
C         2.32131787669332    0.59757125907104    1.29667394919983
C         0.00832094042026    1.17638907361140    2.39058559331963
C         0.11555499397873    2.62597295826450    2.20272502041028
C        -0.07803481968476    3.48622541490810    3.28369503053982
C         0.13954549723888    4.83968577392351    3.11861889221526
F        -0.04125830752176    5.65431075586951    4.17803558610432
C         0.55653412662996    5.38875190984589    1.91978347638094
C         0.73499814839359    4.51310738344387    0.86401509389034
F         1.13585663040734    5.01151037289125   -0.32385321967992
C         0.51932462601786    3.15360894103561    0.97642358573731
H        -2.31911990927028    2.01123096216188    3.64790297389423
H        -1.75281022485588    1.12440690812345    5.07403493828821
H        -2.89608074281907    0.36850794715591    3.97768230294451
H        -0.76071497357681   -2.90063660698188    3.99220672798431
H        -0.52683396576875   -1.75355880865814    5.30838776826094
H        -2.05866868967228   -1.78162974867356    4.43877248731993
H         2.44257827779502   -1.94981854317899    3.57954009714720
H         1.24317127543475   -3.07339876515330    2.94169178781724
H         2.34186394368001   -2.23972494071984    1.84029155133187
H         2.20323556277710    0.47585688704266    0.21986487660496
H         2.58576300144266    1.63622878527266    1.48568058375060
H         3.13347095728721   -0.04600017978351    1.62435140352892
H        -0.35178507648089    3.11892376862786    4.25798956355420
H         0.73510811340622    6.44613394522986    1.81994894665402
H         0.64776187340353    2.51869949809323    0.11511019019233
C        -1.29849281484936    7.77071779931438   -0.79817681400004
O        -1.68574370795304    6.41968350822707   -0.56403863787660
C        -2.26832505117158    6.10950177050627    0.59369490090495
O        -2.50370393381484    6.90742249650310    1.47510329381165
C        -2.59905196057236    4.66335921586510    0.67695950353943
C        -3.40110702385181    4.22065902628151    1.72676081458603
C        -3.76941226894975    2.89303571064173    1.80705285285460
C        -3.29669231796196    1.97675689826431    0.86640908463173
C        -3.79997007678251    0.59245483480137    0.84320918535187
C        -5.18566126558013    0.41840700162783    0.78473794402121
C        -5.72537030367802   -0.84100785472313    0.59232833135123
C        -4.85955191392180   -1.91001832488415    0.44079377880280
C        -3.49077049824226   -1.68537888928957    0.55880631047705
C        -2.51921406468285   -2.73104001322795    0.42859938385335
N        -1.27577932634380   -2.42823411414936    0.61402990129332
C        -0.29747292597427   -3.42255071048984    0.50796188989775
C        -0.49398817941054   -4.67848288490861    1.08957387290213
C         0.47494104580180   -5.65285488185438    0.97016503376526
C         1.65009225464862   -5.41692571255106    0.25853050607838
C         2.68037719793925   -6.48662749743531    0.10962918347177
C         1.83260750034904   -4.16292859393212   -0.32084667409888
C         0.88465557371510   -3.16908407092618   -0.18922650438565
N        -2.96627480980828   -0.45290074018280    0.78934926338862
C        -2.47786229756707    2.41788425723172   -0.17020971227601
C        -2.14167630821906    3.75392047486386   -0.27213580171762
H        -1.48418364253162    8.37416807836071    0.09204331480882
H        -1.88005638003309    8.15156874291490   -1.63744097898064
H        -0.23817782135128    7.77070381226698   -1.04930137149389
H        -3.74551161636856    4.94052293742840    2.45345880063441
H        -4.42539152296723    2.56531656528562    2.59920933707070
H        -5.81817062841745    1.28792484432196    0.86179368638053
H        -6.79352268242002   -0.97985476754714    0.53963817894291
H        -5.22173333170003   -2.90593148401681    0.24567100738086
H        -2.82416345903155   -3.73067110101120    0.14085201290542
H        -1.38878383511058   -4.87046377601447    1.66213641104659
H         0.32040633661487   -6.61423714444330    1.43607979759760
H         3.67108647870133   -6.05971952551156   -0.02314108551194
H         2.45635283072933   -7.08994032441546   -0.77075006920742
H         2.68667297478178   -7.14727183271083    0.97291583382023
H         2.73289192991132   -3.96421518845064   -0.88228571339832
H         1.02525383203944   -2.20538257290551   -0.65224661921566
H        -2.13610975969698    1.72138452873004   -0.91785194584023
H        -1.53659492134472    4.09969641718435   -1.09448846690618
Cl       -0.34900254904716   -0.02863034299086   -1.03676809469063
