61
 energy: -98.812669733058 gnorm: 0.000787871408 xtb: 6.4.1 (afa7bdf)
Ir       -0.48031400757236   -1.09116966475891    0.91162186298772
C        -1.52788729282191    1.19821557794460    3.28596212156398
C        -0.45166348005316    0.36289990233739    2.68329015109206
C        -0.14333565061883   -0.98167617684955    3.10704784395375
C        -0.81749952180216   -1.69996016045365    4.22582402813511
C         1.10816304006153   -1.36287893268743    2.50279439807394
C         1.92244751196201   -2.54710638378383    2.88955411049769
C         1.49626960643507   -0.32246374807798    1.61431726056867
C         2.77904735555240   -0.21024834098214    0.86717140570740
C         0.52658223017251    0.75569649809328    1.73046277780951
C         0.73377561808895    2.10942032569571    1.13612809368451
H        -1.22247012011722    1.47905667225725    4.29471232546949
H        -2.46144833495007    0.64641125268183    3.36293002969038
H        -1.70458977453080    2.10450650243497    2.71616222314038
H        -1.88318180865945   -1.48853735601102    4.24320801156406
H        -0.66850568608935   -2.77332100473836    4.14885575393275
H        -0.39129686846000   -1.36690664687403    5.17297046091901
H         1.29798940438359   -3.40153582049532    3.13545257314161
H         2.60719583249753   -2.83244476767856    2.09683278709673
H         2.50806656268405   -2.28967639463529    3.77273045367659
H         2.61029246041169    0.21921558129952   -0.11766129832861
H         3.25488014656766   -1.17906527672450    0.75042444971470
H         3.45680597043645    0.44769611441906    1.41236777044152
H        -0.08312646351786    2.78311422116864    1.37703781340334
H         0.83508533147683    2.04382936283879    0.05387572337828
H         1.65765789373804    2.53305088522346    1.52958135343056
C         4.62159918937338   -5.21771947818383   -1.03006500198671
O         3.55233045409624   -4.29616613903252   -0.90507059527819
C         2.45108497701613   -4.65409191510384   -0.22143112241110
C         2.29074678377721   -5.86731355577611    0.45018338254143
C         1.10683268280071   -6.11937090915517    1.12658902982681
Cl        0.92436594122460   -7.62804128522607    1.96793749591111
C         0.06910828718980   -5.20664903997545    1.14967600032004
C         0.23721579222117   -3.99231970568133    0.47823330094435
N        -0.78773393743837   -3.03725236673768    0.47073710008551
C        -2.00895966032454   -3.40075813212932    0.22907770885972
C        -2.99287420927333   -2.36686363458927    0.17481095031410
C        -4.34978289684396   -2.61215555916761   -0.12225000512938
C        -5.21304736714005   -1.55970489401714   -0.21638990812746
C        -4.71283334072888   -0.24298536347175   -0.09107548951404
C        -5.53601336727852    0.88543534780575   -0.25584378275668
C        -4.99832413626431    2.14617500343046   -0.19622258836127
Cl       -6.00602872382761    3.53693158053206   -0.40804999859137
C        -3.61890478530449    2.32716300783208    0.00909079156916
C        -2.80634034606155    1.24473743584690    0.20217934935205
C        -3.32449351448224   -0.06523819953116    0.18247820457759
N        -2.51038290260673   -1.13007649478095    0.38276365716844
C         1.41959474542661   -3.71155013216249   -0.18960185478140
H         5.06216158158023   -5.44835856344954   -0.05698260773181
H         4.29461719715429   -6.13918476393138   -1.51768873643784
H         5.35991345229132   -4.71982421863818   -1.65496098752703
H         3.06725595814586   -6.61301335313831    0.45600978753526
H        -0.83380479609730   -5.41789251174362    1.69741264200763
H        -2.26471496726745   -4.42923287340732    0.00376759918386
H        -4.67784174271880   -3.62898369882048   -0.26175193824813
H        -6.26306818424924   -1.71089006292049   -0.41195026296852
H        -6.58750008375540    0.74398258768075   -0.44778867591573
H        -3.21377740763192    3.32607435438880    0.00274570136582
H        -1.74213859879078    1.37027146012521    0.31421654711459
H         1.53597906089261   -2.78153982428668   -0.72338993720916
Cl       -0.07976009038083   -0.57513232420580   -1.38159824042375
