80
 energy: -118.980944743437 gnorm: 0.000233812689 xtb: 6.4.1 (afa7bdf)
Ir       -0.90164733736779   -1.34241808206465    1.36109356936942
C        -2.18855744728708    1.24995539907551    3.36030278702362
C        -1.12237472211092    0.26928732066613    2.99999218376442
C        -1.08798754020625   -1.05913036850954    3.58015456994922
C        -2.09481222325141   -1.58189775188981    4.54934632384284
C         0.21655904716469   -1.60501749163716    3.35959074611220
C         0.82052141693305   -2.74094014166688    4.10366682403362
C         0.90568684000973   -0.72422212563901    2.47379776597957
C         2.32891423140371   -0.87488071682313    2.05018487922744
C         0.09906217689205    0.48132373752252    2.30791409347543
C         0.68723131683773    1.76316267879252    1.78336453058444
C        -0.14138514199081    2.52174510169577    0.74262421037915
C         0.63204194523335    3.74757910052214    0.26292950677004
C         0.95893703924125    4.66904868733320    1.43522938316506
C         1.76296913121134    3.91965970764949    2.49396917027254
C         1.00369905252280    2.68615135167659    2.97428656477425
H        -3.18047401632661    0.83950078292774    3.18450885111478
H        -2.09539035516601    2.17993334944620    2.81259788611401
H        -2.10252959990972    1.46586344956052    4.42612611949718
H        -2.08133090957938   -2.66766352344642    4.58393310426619
H        -1.86073182091806   -1.20768953231093    5.54685876174148
H        -3.09690199053189   -1.25184993382709    4.29090814549864
H         0.06734404819106   -3.44230441711536    4.44958097963698
H         1.56575157180322   -3.26315319511532    3.51099410949446
H         1.32243694330675   -2.32944546219988    4.98121960586304
H         2.62906228048167   -1.91880846389889    2.07853408253606
H         2.47095605629537   -0.50699024268587    1.03671753922899
H         2.97707411205028   -0.30844145628802    2.71921550006324
H         1.63471377889870    1.50972490542761    1.29898728087939
H        -1.08760531481212    2.85802076847381    1.16716363953876
H        -0.34537669845181    1.86301014705453   -0.10283575606586
H         0.04046545095791    4.28646265018030   -0.47977434761923
H         1.55850349943907    3.42971088265258   -0.22031598729551
H         0.03114966921839    5.03982792052029    1.87745072059812
H         1.52565499171153    5.53268540253075    1.08192645645240
H         1.96511216609162    4.57669203209967    3.34251563517439
H         2.72363517792108    3.61747930254253    2.07077546963173
H         0.07683373810362    2.99796877429657    3.45639654865698
H         1.60188807672550    2.14672273402733    3.71083927297966
C         0.85377250103688   -2.40962566516114   -3.86299297246744
O         1.28248296281699   -3.01165724469072   -2.64560161462233
C         0.33738281292332   -3.48761751204420   -1.84541354380105
O        -0.84179122673938   -3.53005107869457   -2.12735836053521
C         0.90852572259296   -4.09871295694477   -0.60856307821767
C         2.10571882378300   -4.79918932538937   -0.69914077816952
C         2.59690367008345   -5.51291701719495    0.39220944990159
O         3.74245312103391   -6.22103712460869    0.40220664635340
C         4.54199759434897   -6.26138950022472   -0.76571404101192
C         1.84697470732202   -5.53869202132655    1.57475821579331
C         0.67907632763266   -4.81823864878809    1.67932723248033
C         0.21134291171111   -4.06390883891567    0.60529044136713
N        -0.94856163967913   -3.27380936187241    0.72935205012012
C        -2.06371274746507   -3.72089812763769    0.26021416330206
C        -3.16343231268118   -2.80659942506107    0.19061076309643
C        -4.44118595202347   -3.18932930405007   -0.26177684837981
C        -5.41684329322292   -2.24076790474098   -0.37796357658094
C        -5.09356561629074   -0.88943450966953   -0.13039599641593
C        -6.02039925855677    0.15489100765553   -0.31824391765390
C        -5.64782822938170    1.46061867938580   -0.14339228219052
C        -4.32570827236312    1.77301020588124    0.21030699483745
C        -3.40990553462882    0.78012386586001    0.43204979762423
C        -3.76880079046064   -0.57259108140679    0.29447124846898
N        -2.85496487430791   -1.54746251169123    0.52911008413787
H         1.75409541788816   -2.22817527592102   -4.44315255989781
H         0.17004766246154   -3.07385677302040   -4.39467015646481
H         0.34213769142013   -1.47065429082184   -3.64266119203293
H         2.62496490853092   -4.79326408167320   -1.64272339559433
H         4.87607143129078   -5.26092743100452   -1.05209354293685
H         5.40353718377902   -6.87250842412010   -0.50479436578682
H         4.00521182174968   -6.72537331388421   -1.59732640043506
H         2.20538418801868   -6.13793936409509    2.39585911970485
H         0.09204779246785   -4.86338730655426    2.58108056295342
H        -2.15484607145849   -4.72722363266583   -0.12992679307666
H        -4.62093778095037   -4.22445770320573   -0.50039153117372
H        -6.41780560461241   -2.49923816113042   -0.68727902698032
H        -7.02426518187145   -0.09747393694840   -0.62356622791249
H        -6.36000129314540    2.25608456469383   -0.29754137088998
H        -4.03303653273076    2.80745229326571    0.29937041236567
H        -2.38215367568796    1.00457198159992    0.66285143794326
Cl       -0.08983500525852   -0.79417402497741   -0.79627577387036
