72
 energy: -109.873049407882 gnorm: 0.000720673854 xtb: 6.4.1 (afa7bdf)
Ir        0.65496406978194   -0.28644026372995    1.32839411441273
C        -1.70444551062338    0.90111228278447    3.38814924678772
C        -0.32335371190781    0.40956477000052    3.19537318454920
C         0.03772104568900   -0.95865167207412    3.40699730469359
C        -0.91639905565667   -2.01904766549149    3.81457882097902
C         1.45495262969748   -1.07449841772754    3.24968634602376
C         2.26688297957627   -2.29425155011039    3.45933179100712
C         1.99295856357071    0.25450394283241    2.99429511619092
C         3.43759203813116    0.59789014453236    2.95295531660573
C         0.90167610297849    1.17518985798094    2.95298421056045
C         1.05560354156094    2.66303978242237    2.87893597779755
C         0.27961619638808    3.32794162540431    1.73222731262218
C         0.58374608227287    4.82340112963169    1.70703967289328
C         0.21494944636199    5.47186019603053    3.03949032687195
C         0.96136232577509    4.79650781992643    4.18663371007308
C         0.65640348567817    3.30179670048981    4.22342699395345
H        -2.40137848032293    0.25568573529785    2.85825259190109
H        -1.83805660819009    1.92260063063346    3.05307946448148
H        -1.94919172390599    0.84313203206322    4.45043749698428
H        -0.43243167451461   -2.98732825559532    3.87145422002970
H        -1.32817946048341   -1.77064126126477    4.79197116511633
H        -1.73804034424905   -2.07312725812722    3.10476382535315
H         2.67488157146260   -2.27034468106095    4.47189753611755
H         1.67027288615626   -3.19486326273954    3.34909875975316
H         3.10500964444462   -2.33613966223431    2.76764803372561
H         4.04612940487652   -0.28045913372240    2.76329277088236
H         3.64442314947487    1.33692585970203    2.18289170803040
H         3.72997610839567    1.01985991963743    3.91511445012051
H         2.11547960905061    2.87909530112334    2.71292953906246
H        -0.79383369689438    3.18721035347553    1.85364463157665
H         0.57494790660733    2.87157427215492    0.78546120817520
H         0.02427192106171    5.29539341755331    0.89742825139691
H         1.64662945934190    4.97853437962591    1.50869914221798
H        -0.86170920694321    5.38553009048358    3.20165340083982
H         0.46088569202207    6.53465625916039    3.01208355995869
H         0.66825956272605    5.24733244472085    5.13611624266088
H         2.03507870758395    4.95187761286990    4.06138571351509
H        -0.40707141050156    3.15686269627704    4.40628964490169
H         1.21176968033843    2.82856693375825    5.03403421668269
C        -4.56984789121382   -1.32804729662514    2.15910225743752
S        -4.99783572879267    0.28928306690165    1.42706224861030
C        -3.66338430013779    0.53833131007157    0.33297908337937
N        -2.60864108511949   -0.24934788981730    0.42611720348492
C        -1.61396916446544   -0.13635829004857   -0.45406296229769
C        -0.52398606189101   -1.11486558653447   -0.35271860151412
N        -0.50716976327712   -1.97289594555498    0.64746771583276
C         0.24512538677048   -3.15202586598063    0.55723489712336
C        -0.33872477146206   -4.30526944150019    1.08677358912757
C         0.32945490936372   -5.51455870089354    1.02266858590463
C         1.58921601335994   -5.59097817945937    0.45183190497775
C         2.18693263063794   -4.43917028924543   -0.05705846626113
C         3.53880288607694   -4.47186917995657   -0.67378901515575
O         4.11569143779868   -3.48556588459781   -1.07823218472993
O         4.06028928559072   -5.69147208382873   -0.74130167515652
C         1.51683107987877   -3.22174193929332   -0.00666770965804
C        -1.62761228089759    0.82063833631567   -1.47316307713210
C        -2.69527224107895    1.69768348042229   -1.54189989044801
C        -3.74308669113852    1.57113853767107   -0.63249122463528
C        -4.85459908081818    2.43550691309579   -0.69047181871942
N        -5.75183656134306    3.14940162945497   -0.74570389189393
H        -5.39415825733108   -2.00370257666959    1.95472175562914
H        -4.44938237871212   -1.20130034702640    3.22937197203812
H        -3.65698810914321   -1.66580172109212    1.67905828546225
H         0.01561816913426   -1.31487506964545   -1.28645488987021
H        -1.32373443902061   -4.23715512948342    1.51839798130342
H        -0.13136730225514   -6.40394041189265    1.42268039914168
H         2.11716803313448   -6.52924780195807    0.40095936602541
H         4.94210680479800   -5.68926156889342   -1.15436016479611
H         2.01801759420192   -2.34211226221042   -0.39201104462226
H        -0.81431838774924    0.88396453002854   -2.17671693143370
H        -2.73475467100910    2.46652014361194   -2.29891511773092
Cl        1.81884500930017    0.69427640794341   -0.39183159892341
