90
 energy: -131.924327736969 gnorm: 0.000476299899 xtb: 6.4.1 (afa7bdf)
Ir       -0.59474059135950   -0.47985877427506    1.48487173343530
C        -2.26403765149527    1.22630854249541    3.93451071872205
C        -1.00259014907863    0.62315602522637    3.42588421432412
C        -0.58422171235810   -0.71625886573030    3.70940188301756
C         0.78802262204571   -0.84767711032789    3.28902744800817
C         1.73832986235620   -1.89755239179344    3.75042224444387
C         1.16501272176543    0.35709204047938    2.63068930652894
C         0.04823752485879    1.28330755180764    2.70928405641252
C         0.18028894779781    2.72567642009260    2.47010824935545
C        -0.09077784382823    3.61636450846664    3.50823444943879
C         0.13551896702641    4.96770075255621    3.34928106656863
C         0.64681040154661    5.47372547037850    2.15516624689180
C         0.92602445387476    6.90852622908855    2.00928619800061
C         2.05076447242552    7.34741777287307    1.31290466956733
C         2.32364065041677    8.69721244079501    1.19094859332187
C         1.47700966423202    9.63440661495454    1.76044501748040
C         0.35557773710256    9.21070118080085    2.45452887562640
C         0.08304642202213    7.86033074397122    2.57978256977582
C         0.90337124570080    4.58129941643907    1.11601274751415
C         0.66959478712504    3.22944704485053    1.26713958617763
C         2.55374234039245    0.70295480759923    2.21884583926228
C        -1.32737629257932   -1.68123574091976    4.57174015423932
H        -2.20172436281242    1.29657028206097    5.02140189376103
H        -3.12672133335092    0.60629309207365    3.69762011085867
H        -2.40970121556438    2.22030473266239    3.52438767131947
H         2.29344745856771   -1.49401429188451    4.59932698749520
H         2.46301009985549   -2.15973389392957    2.98483775351459
H         1.21873651060621   -2.78955730924071    4.08600898442353
H        -0.43666428924980    3.24595993790595    4.46047230068688
H        -0.05138192333235    5.63675727377749    4.17576611120606
H         2.72734779147891    6.62560641177553    0.87965869174215
H         3.20138614330607    9.02099798581366    0.65042906109102
H         1.68931167338846   10.68903462142841    1.66358351279121
H        -0.31046820766912    9.93743413275340    2.89725636351153
H        -0.80556003078433    7.54160298070446    3.10541979733360
H         1.26688305878095    4.95815975592093    0.17217673679933
H         0.84742447886555    2.55747873062923    0.44154321511357
H         3.09729576987081   -0.17435917266406    1.87765188897498
H         2.56080019467448    1.44888766105994    1.43055485688711
H         3.07876903389527    1.11790562297625    3.08084685524689
H        -2.40051364704273   -1.54541879086764    4.47225972945850
H        -1.07887493559930   -2.70847149502890    4.31964056429905
H        -1.05954378338472   -1.51184228683789    5.61547728519931
C        -2.73028615828559    8.40255276690594    0.58520563032782
O        -2.87316819549769    7.00873824217532    0.83851700427539
C        -2.11551056237735    6.18408091642115    0.10966075443176
O        -1.31365618975879    6.56810804288027   -0.71251103117983
C        -2.39927920843472    4.75431380004199    0.39014714785876
C        -1.76372254033969    3.78901514408644   -0.38507004563836
C        -2.04721243055895    2.44862443241968   -0.21100531275252
C        -2.99090770039816    2.05348806462733    0.73379242008985
C        -3.45251184102145    0.65602652186939    0.74113344503254
C        -4.82852773264682    0.45010943222120    0.58987203498866
C        -5.33234477437098   -0.82016577813653    0.37952825417043
C        -4.43390791851250   -1.86812150849024    0.27662137423003
C        -3.08263321041013   -1.61132986040317    0.48305075716717
C        -2.08299218828356   -2.63432312775905    0.34642479114916
N        -0.86987872929536   -2.39376841780052    0.69038862977878
C         0.09348139798648   -3.44961020829862    0.43426378640363
C         0.09561444446653   -4.46257452750726    1.58877841245823
C         0.87304798324096   -5.71577337043866    1.16767006939848
C         2.03842557258874   -5.37191629203832    0.22966900872397
C         2.56808784661335   -3.97459752470911    0.53488617345514
C         1.51023881606886   -2.91544874171053    0.20296578362962
N        -2.59855196977888   -0.37702178904534    0.76543754211222
C        -3.62813456911913    3.02354918231874    1.51199508849161
C        -3.32058523668467    4.35990064225401    1.35837249826817
H        -3.09811594606040    8.64175287821501   -0.41431176018613
H        -1.68013646193047    8.69236634821510    0.65510508774350
H        -3.32418891054435    8.90745352140336    1.34173089342469
H        -1.06502099436758    4.11097912903803   -1.14113912796597
H        -1.56585871857458    1.71008701624495   -0.83080473343807
H        -5.48246821577201    1.30700165771702    0.60282168428873
H        -6.39211351275525   -0.98203792963181    0.26269042153893
H        -4.75930641023787   -2.87022860486270    0.05069898184121
H        -2.37044569925995   -3.58017832538799   -0.10430686091603
H        -0.23445552105761   -3.98383530056015   -0.46575327705866
H         0.56084546456265   -4.00428967948763    2.45755183291547
H        -0.92866751080390   -4.73026335348079    1.85125380569693
H         0.20510371793033   -6.41927958772999    0.66880878080417
H         1.25285985445615   -6.20730215756137    2.06425501338250
H         2.83428348215872   -6.10852933979647    0.34478279228587
H         1.71309942907107   -5.40870675648368   -0.81159639589858
H         3.46873648236629   -3.77916982124581   -0.04783964794869
H         2.84486148412458   -3.93230315403075    1.58919336912083
H         1.60051861096514   -2.61144976127369   -0.83985176180166
H         1.66374461171243   -2.02135204762834    0.80720911975497
H        -4.37118285618877    2.73053293086991    2.23846106682964
H        -3.80901844271583    5.10584823687728    1.96411390909266
Cl        0.23403709295007    0.02479139763134   -0.69044965002203
