68
 energy: -119.162770756440 gnorm: 0.000325731896 xtb: 6.4.1 (afa7bdf)
Ir       -0.79845424586932   -1.04649959323484    1.36263028116309
C        -2.19672734859162    0.74459488512642    3.95866082050737
C        -1.01354217679253    0.05961837789219    3.37031415920866
C        -0.68463819014558   -1.32459515550263    3.57810970143878
C        -1.44016857582481   -2.26098022991794    4.45779227915957
C         0.63284746291378   -1.55149482520506    3.04639410054408
C         1.47769355051664   -2.74754669825769    3.30867598764147
C         1.05770107298780   -0.36202857314351    2.38974369233659
C         2.42474867897863   -0.10938298902423    1.85735074902060
C         0.02965644623053    0.65056742558944    2.60008016592488
C         0.22550443018127    2.09085989300972    2.36014141896308
C         0.17746585776050    2.96562998077260    3.44457780771471
C         0.42039138066736    4.30967826493151    3.23409654035195
F         0.37876909963708    5.14750891525598    4.29016293644117
C         0.70548951931449    4.82924655806653    1.98397988676007
C         0.73832352982015    3.93582873738739    0.92729891410244
F         1.00521186580169    4.40830252106859   -0.30656842010627
C         0.50646206866694    2.58275619991524    1.08731691830723
H        -2.31558273939807    1.74692263729083    3.55885847861182
H        -2.06136070843911    0.81054086206817    5.03875217027570
H        -3.10934171874038    0.18092142943554    3.77860715550746
H        -1.29984497219340   -3.29326784735988    4.14827101504272
H        -1.07674078880539   -2.16364978298825    5.48132244087561
H        -2.50198832238207   -2.03220448613817    4.45155111093872
H         2.02506758289630   -2.58224806996339    4.23747414769498
H         0.87705179894795   -3.64489597658176    3.42712539068015
H         2.20039866743443   -2.90300007431542    2.51312871315211
H         2.80691765522118   -0.97998516396562    1.33065785600187
H         2.43054595967366    0.74064823783160    1.18223369462163
H         3.09470673780220    0.10551044546253    2.69065939689523
H        -0.01858799797100    2.61099080543227    4.44290896482461
H         0.89432905371412    5.87992149215622    1.84014445470863
H         0.52154829431576    1.92935307246750    0.22807979233746
C         4.57798902783730   -4.69841477813955   -0.77690766532505
O         3.46265797500915   -3.83936622380870   -0.61162514183314
C         2.33273476037509   -4.32671196757393   -0.06702409744730
C         2.16794040011041   -5.62750716423796    0.41472052575060
C         0.96114296745321   -6.01412511134128    0.97309871129089
C        -0.08943173968907   -5.12372825259873    1.03243883038347
F        -1.25486528081147   -5.50355164496565    1.60630200380681
C         0.04366783218785   -3.81535349470577    0.55174895140120
N        -1.01409086164413   -2.89795909565329    0.60396789554131
C        -2.19974695811891   -3.24210444091375    0.21182089750368
C        -3.21125863937717   -2.23153777027508    0.24484339869275
C        -4.53767691483136   -2.45860726090498   -0.17298290844681
C        -5.42548015421033   -1.42097930200994   -0.16213747363836
C        -4.97558051842132   -0.12914447077476    0.19376158593649
C        -5.82363824858802    0.99254212909395    0.15359750318043
C        -5.33061270340819    2.24033503162969    0.44110213497047
Cl       -6.36288043509157    3.62515844314438    0.38058700371701
C        -3.97263214888837    2.41584451998972    0.76585206656254
C        -3.13779768418191    1.33641876441315    0.84239082701400
C        -3.61140952228125    0.03463651190896    0.58081600025511
N        -2.78052860417608   -1.03099216229432    0.66459142138220
C         1.26593132163656   -3.42799573993029    0.01931643091948
H         4.33435941301605   -5.54319463243417   -1.42542696453818
H         4.94497270142572   -5.06113569112290    0.18632606601406
H         5.34348676117713   -4.08766259944051   -1.25033044522698
H         2.97000273389709   -6.34424213225379    0.36480894782226
H         0.82754218236594   -7.01133736654049    1.36052780531348
H        -2.41346591235945   -4.22707726263185   -0.18622868642352
H        -4.82615940588996   -3.44964902516534   -0.48227639295139
H        -6.45669696045263   -1.56357354554276   -0.44505558942272
H        -6.85719455038920    0.86006173916155   -0.12328942883018
H        -3.59929965116496    3.41043690205564    0.94702912917097
H        -2.08925029808748    1.47483660945383    1.05312770224604
H         1.38327899690158   -2.42929312058093   -0.37150702945895
Cl       -0.23226480966649   -0.28918567055929   -0.82086473697480
