70
 energy: -111.014368613971 gnorm: 0.000443786432 xtb: 6.4.1 (afa7bdf)
Ir       -0.50511317507828   -1.00336050980083    1.31345840190383
C        -1.61696088870019    1.39005112797975    3.73081438507752
C        -0.60344906632890    0.48588136198798    3.12720343708245
C        -0.46976279909699   -0.89816122100664    3.55231170206500
C        -1.35055528263262   -1.55364880014587    4.55819765500613
C         0.79394419736967   -1.38420761861571    3.10398904675320
C         1.46866345507119   -2.62038222862986    3.58267783276218
C         1.36192507712067   -0.37544367098709    2.24799258859352
C         2.74512196968422   -0.39542177781527    1.69513781594986
C         0.51179760441368    0.81112739350152    2.31713119136423
C         0.96681406618732    2.15877335066313    1.83258067913808
C        -0.02057311008061    2.90445931497067    0.92999619337249
C         0.60817190347765    4.20837328148766    0.44733800159371
C         0.99190569832301    5.08829550607587    1.63450428113855
C         1.95487397567393    4.34709288367169    2.55798514929113
C         1.33638673437229    3.03824404946335    3.04091311690658
H        -2.59159745691286    0.91378383092543    3.79094735946712
H        -1.71639343841827    2.32239975245563    3.18880818550025
H        -1.29631962575720    1.60945812604492    4.75085942939596
H        -1.23672397956085   -2.63308420654712    4.53974840203445
H        -1.07730340537364   -1.19917108774355    5.55247155099060
H        -2.39447668723462   -1.30332174415554    4.39193084271138
H         0.75709192030359   -3.41714427669384    3.77932618139167
H         2.21290410320730   -2.97463875777567    2.87617338208185
H         1.97452875300631   -2.38322270402697    4.51971250104288
H         3.12423466823663   -1.41029089549004    1.62622671180271
H         2.77664007958718    0.05833396486092    0.70795786123066
H         3.39941392805151    0.17666991781010    2.35341413809718
H         1.87603455262679    2.00663962950468    1.24399826015711
H        -0.94051400354653    3.13666548764604    1.46494556841327
H        -0.27301477073516    2.27557606212255    0.07632737299513
H        -0.09717673073597    4.73828137619082   -0.19556734116461
H         1.49887600311578    3.99088156122165   -0.14721062456541
H         0.09157307607242    5.36205999976389    2.18931731574471
H         1.45552959816840    6.01051651019776    1.27891683439856
H         2.20071969241063    4.97282528047238    3.41835447294806
H         2.88324165238030    4.14096280233686    2.02058717205947
H         0.44306307086822    3.25888675731930    3.62382225857180
H         2.04158846400621    2.50875386445567    3.68390135825727
C         5.60324147478874   -5.46490657009973    1.63855404543053
S         4.53100327959202   -6.15755679579730    0.35438129863460
O         4.19882547175439   -7.51879695060716    0.69946796183747
O         5.13060750370584   -5.92607286405634   -0.93753068671480
C         3.02792311365556   -5.16538083634706    0.46381739329188
C         1.93189650291773   -5.66961365925967    1.13953580301197
C         0.76799629577662   -4.92460086506064    1.20625009640651
C         0.72245103120025   -3.66494961167986    0.60545409933076
N        -0.45520667123359   -2.89957399979704    0.63494646869579
C        -1.55798317752554   -3.44924647342149    0.23411871577794
C        -2.72214567158976   -2.62642085807538    0.16077367552658
N        -2.56674408512505   -1.35156285180568    0.59345882911619
C        -3.56333254274927   -0.49835942744365    0.38050547026573
Br       -3.29243947026701    1.29328078122858    0.84109713488780
C        -4.78390616396320   -0.85899699397406   -0.17889212264768
C        -4.98302021104328   -2.17254994339809   -0.57417348129781
C        -3.92749883135343   -3.05059119605693   -0.41398778512281
F        -4.03307549277445   -4.31912961126815   -0.81687275843356
C         1.83793246165875   -3.15950021522985   -0.06378329272572
C         2.99035612730635   -3.92099601938043   -0.14083826240127
H         6.52226324719177   -6.03816203159325    1.64152861548569
H         5.09356605584244   -5.56284440575535    2.58792254244928
H         5.80312858034422   -4.43115747444913    1.38992785334286
H         2.00228144137391   -6.64898878382025    1.58491508454170
H        -0.09474196528180   -5.30539208415607    1.73033489756008
H        -1.59343942549766   -4.47300538591020   -0.12169307933849
H        -5.55851554769367   -0.11817118799854   -0.29884741021733
H        -5.91289632306545   -2.50299135037808   -1.00939368343960
H         1.77004127667651   -2.19678134992028   -0.54588187969036
H         3.85383713365591   -3.57266853017074   -0.68452311423956
Cl       -0.18835024196812   -0.27947914796972   -0.92955610089578
