73
 energy: -112.312363117587 gnorm: 0.000671905489 xtb: 6.4.1 (afa7bdf)
Ir       -1.00452184729914   -0.58558813801864    1.31654086362630
C        -2.45141814124822    1.50763515199353    3.65109395335755
C        -1.33750186637686    0.59761900737900    3.26470418007573
C        -1.32847254858403   -0.82513847632204    3.51333474709884
C        -2.40636339973571   -1.56169659432183    4.23480662639283
C        -0.01675950197785   -1.31131683579783    3.22936483882562
C         0.52095739484030   -2.64564441578347    3.60581627579205
C         0.73461993365418   -0.24380586043534    2.64485211386931
C         2.19589739992391   -0.27753961128349    2.36052786007178
C        -0.07922929563742    0.96094248433870    2.72175402533010
C         0.42965580900114    2.32548752163932    2.51425392049048
C         0.36742562729205    3.23714746222205    3.56711339072074
C         0.89139885258556    4.50344952867068    3.39149965525289
F         0.82881510923226    5.37771933870699    4.41780068799705
C         1.47778479437959    4.90995324842181    2.20640338979905
C         1.51988675955382    3.98265833185338    1.17955446852061
F         2.07589574245463    4.34868154304879    0.00629297469216
C         1.00976291895604    2.70472697673379    1.30552882702825
H        -2.25787030808191    2.52183959028721    3.31557014253306
H        -2.54643290014826    1.50927042787654    4.73731457816282
H        -3.39995117468634    1.16661338141436    3.24074697909266
H        -2.36178986146597   -2.62689541666659    4.02632196465559
H        -2.28329182422633   -1.42207182295803    5.30935765000180
H        -3.38774268549272   -1.18716675686768    3.95604051548379
H         0.91619864324420   -2.58233563461885    4.62055087402645
H        -0.25271811144763   -3.40825300813467    3.59394132784246
H         1.33039623363484   -2.94966316994300    2.94844412470606
H         2.48747688196863   -1.23593192844382    1.93843338601028
H         2.47992063229899    0.51272225374426    1.67189834803530
H         2.74443951142471   -0.13431917519780    3.29243920577664
H        -0.05753211090655    2.96614559764396    4.51962866017423
H         1.88264317363249    5.90093862451590    2.08800333199667
H         1.03376454630117    2.02995730523226    0.46307332002254
C        -2.32202584241643   -2.78730461352124    0.14822123290982
N        -1.13947576497976   -2.41800096191260    0.50326151151893
C        -0.07320566778704   -3.32931467550192    0.47766278989905
C         1.18363846491127   -2.91940196504007    0.03371144646251
C         2.23255053822758   -3.81996553948619    0.00963872726845
C         2.04762148475385   -5.12510725215053    0.44104250863598
C         0.80248421523715   -5.53127047375397    0.89671652030431
C        -0.25657251866925   -4.64349903717995    0.91510495697481
C        -3.40554650980505   -1.84859629513056    0.23245706351294
C        -4.71402812667376   -2.27424039077706    0.10066728685410
C        -5.72353346217185   -1.34428297350484    0.35293598284739
C        -5.37869562565631   -0.03215731788740    0.50772877423650
C        -4.01720566964671    0.39148469393363    0.38460419470286
N        -3.76524892504527    1.69084860820006    0.19864395851303
C        -2.43786645559329    2.26945985201921    0.15010027845445
C        -2.48553926674141    3.72537327373052    0.59948616708404
C        -3.26908980584112    4.57433191759763   -0.40565506508995
C        -4.31512207429648    3.70199226540248   -1.10316476789103
C        -4.83847697528615    2.61028424858815   -0.17301465868272
N        -3.04282092979206   -0.55245560463072    0.45487936429364
H        -2.51294750471736   -3.78302280031901   -0.23732770258777
H         1.31510362292367   -1.90847512366346   -0.31787010646522
H         3.19937255436445   -3.50061976633060   -0.34804198403552
H         2.87155733348022   -5.82139498030700    0.42634281197366
H         0.65612321262047   -6.54266815135716    1.24277316000425
H        -1.21809504296002   -4.95489111888911    1.29380907038335
H        -4.93382905136819   -3.30492272792658   -0.11537383950176
H        -6.75341662771304   -1.65551663285313    0.42310607369399
H        -6.13340159177005    0.69546937341904    0.74825723063289
H        -1.77963401452539    1.69781991895640    0.80293138345027
H        -2.02786400267046    2.20153089215577   -0.86195911639655
H        -2.96307253051732    3.77936241501362    1.57824306399066
H        -1.46729673564995    4.09806716821465    0.70577370207217
H        -2.59660278701795    4.99935762317636   -1.15063134091814
H        -3.74922045644979    5.40486313097060    0.11253804331765
H        -3.88359081767871    3.23308694173595   -1.98787436578658
H        -5.15708672542744    4.30973187481911   -1.43410239902533
H        -5.27133024906157    3.06682303999650    0.72348746496644
H        -5.61651197228923    2.06118675168797   -0.70488705910645
Cl       -0.14880008337574    0.10753948159543   -0.79884457093395
