63
 energy: -108.556163857614 gnorm: 0.000675340370 xtb: 6.4.1 (afa7bdf)
Ir       -0.56650810825475   -0.68805495717764    1.66677257246300
C        -1.93121958342295    1.07859635552497    4.31261435465635
C        -0.75655889918288    0.42232269914454    3.68252448576720
C        -0.39629897453043   -0.95228594547940    3.88624555951678
C        -1.10841365245014   -1.89258630813422    4.79638194925232
C         0.90116060469790   -1.16275089473970    3.30329764270348
C         1.78957548178628   -2.32970225965320    3.55584134002679
C         1.29199190555918    0.04640263678652    2.64717277738102
C         2.64227556934688    0.31865467127176    2.08657405518701
C         0.25525168778750    1.03388395179716    2.88255985492331
C         0.40863499190610    2.47310435285179    2.62047265192262
C         0.34011971913244    3.36950554243332    3.68463159694923
C         0.52570455546736    4.71724102115049    3.44069139572241
F         0.46366954557626    5.57700510263552    4.47778178523027
C         0.76949587400964    5.21962379850728    2.17508275839513
C         0.83072812693542    4.30261529936193    1.14030806243315
F         1.05197094382015    4.75768945721198   -0.11107841274848
C         0.66179411858100    2.94548403768289    1.33448018677976
H        -2.06748589462683    2.08870864335055    3.94055779070447
H        -1.77186301897527    1.11510618983232    5.39104169326632
H        -2.84167459707475    0.50894102085815    4.14010900089233
H        -0.86306912498927   -2.92490979430434    4.56481622654003
H        -0.80201894959002   -1.69321297254903    5.82388029235128
H        -2.18458310320265   -1.75657636089299    4.73633302495863
H         2.31465535410758   -2.15901487588501    4.49660836532841
H         1.22754432648705   -3.25450362268213    3.64844870288251
H         2.53142270143789   -2.43933432302310    2.77100261181095
H         2.95582624866171   -0.47096030595531    1.40817320671154
H         2.66105693751401    1.26515965740890    1.55550839189482
H         3.36011586980781    0.36295548033445    2.90657961910553
H         0.17107061158376    3.03202621094011    4.69365445286148
H         0.90616581887550    6.27421084235432    2.00317972112946
H         0.69710349228239    2.27158265281872    0.49250542048448
C        -3.06023757315110    3.30666042370510    0.01638741688371
S        -2.45620076759142    2.03001224116588    1.15610433953709
C        -3.26098453260088    0.56255193070332    0.67850030918588
N        -2.55101226620450   -0.55717876131734    0.87622343118921
C        -3.02727224596453   -1.74455743194265    0.43025684791871
C        -2.09912666059754   -2.82505728448642    0.54258972794722
N        -0.91379398817578   -2.55191623210095    0.99360902006154
C         0.05106768115129   -3.56940246072559    1.03863645957656
C         1.31602356841469   -3.33363455353192    0.49817958664467
C         2.26619816649934   -4.33596911937778    0.49817273527309
C         1.96077105411318   -5.56782233543219    1.06227225559237
Br        3.28694132189465   -6.95404781363518    1.08606176565635
C         0.71077615601379   -5.80980294264923    1.61657871083518
C        -0.24692223830703   -4.81485384222552    1.59542984163666
C        -4.28116998912604   -1.86606510121113   -0.16995951085306
C        -5.06521489207935   -0.73843954322674   -0.29157051520490
C        -4.56183268496087    0.49457265177992    0.13512612095108
C        -5.43046021543320    1.60674426990692    0.07902009201766
N        -6.20294053046274    2.45403551339258    0.05066830794144
H        -3.96055401261062    3.77779321401932    0.39598387143988
H        -2.25359061106420    4.03318075308387   -0.03574182575172
H        -3.22423066773110    2.87358765859387   -0.96469126861361
H        -2.35660113003852   -3.81436325382079    0.18330959270643
H         1.52484088591875   -2.37534547707851    0.04732856566458
H         3.23839520484534   -4.16614057244356    0.06387967190774
H         0.49094717163947   -6.76913256640669    2.05670418095539
H        -1.21605775898829   -4.99115175321533    2.03583439244979
H        -4.62083052771538   -2.82507178966248   -0.52347932936804
H        -6.05990212232442   -0.78877228640739   -0.70731888424021
Cl        0.07028862555193   -0.06663953923042   -0.53075004741951
