64
 energy: -107.815630996097 gnorm: 0.000407149791 xtb: 6.4.1 (afa7bdf)
Ir       -0.22677825338105   -0.77017075815359    2.13470715352296
C        -2.57212288254729    1.00806422970550    3.91531861388619
C        -1.23687153476208    0.35967137842529    3.81831387939558
C        -0.92986377728708   -0.97919423957011    4.25464843877978
C        -1.90268870563655   -1.91996314829952    4.87818588976541
C         0.50107308657457   -1.12160024439251    4.27689217969755
C         1.23032759181337   -2.23545805368374    4.94241099246049
C         1.07381196797363    0.07412507968640    3.75062844822775
C         2.51874729924172    0.43761326406440    3.73415329996702
C        -0.01358932813407    0.99818891150334    3.47109797262715
C         0.15109322077813    2.42630855236063    3.14807479280723
C         0.84422559264370    3.24216962751668    4.03935666005533
C         0.98474060099952    4.58617915606808    3.75014129664537
F         1.65662199360978    5.36758318116410    4.61948564096723
C         0.46592078433085    5.16112549304197    2.60356725722633
C        -0.21458500559006    4.32377766181858    1.73793870927129
F        -0.73150073887833    4.84307177933755    0.60581581584161
C        -0.38656436788249    2.97522483605253    1.98820777977285
H        -2.58314484135511    1.96356217786619    3.39772203604843
H        -2.78630927426598    1.19346239908910    4.96872388652654
H        -3.36228599518965    0.36723934270259    3.53104610142886
H        -1.58927280110185   -2.95198348326052    4.75203646599045
H        -1.96137456653217   -1.71359180296123    5.94740513931075
H        -2.89517053720219   -1.79620963248525    4.45553931907341
H         1.22112998556869   -2.04916513810125    6.01731031976728
H         0.74528814400615   -3.19195774560442    4.77202826347990
H         2.26504658543818   -2.28623842198230    4.62194732619209
H         3.14051738410648   -0.41244985457753    3.47082929798569
H         2.70215625952192    1.23786479277238    3.02222976225165
H         2.81773273572287    0.77881410062947    4.72564204142886
H         1.25974369973652    2.84915041117232    4.95240309456501
H         0.59099511379489    6.20995527421969    2.39240531780754
H        -0.88799278340516    2.35989118262266    1.25916706656947
C         6.08553525965588   -2.45887734215854   -1.25150487695629
O         5.25605335647691   -2.98210472422834   -0.21450049450066
C         4.00614387966451   -3.30774582434382   -0.53210934680124
O         3.53097470651066   -3.20418595663638   -1.63620570170021
C         3.25569347319429   -3.78836403298658    0.69065742836371
C         2.64774875180089   -2.65313564380778    1.54492263731142
C         1.28825108852610   -3.37986473713326    1.50929179615272
N         0.14371723225527   -2.55617702666933    1.22114825602961
C        -0.66996213020388   -2.89248493080633    0.27820079678993
C        -1.75693521706064   -2.00526786717745   -0.01320065866908
C        -2.66262654915611   -2.18601150765407   -1.06147383502988
C        -3.63980067348093   -1.23780057259344   -1.28442938069546
C        -3.67621874302009   -0.12665176632333   -0.44333913230500
Br       -4.99291118872895    1.22988778912652   -0.66957836621986
C        -2.74974749569182   -0.00606354953797    0.58407514127304
N        -1.81677881431782   -0.92347519282011    0.80082199806090
C         1.84235082826875   -4.32291296640825    0.42110313629969
H         6.94622271911174   -2.01844195264807   -0.75595398076091
H         5.54072954242730   -1.70901524677063   -1.82717107257322
H         6.39884593143470   -3.26230613260991   -1.91996580625147
H         3.89963202660197   -4.45049905485779    1.26668033889802
H         3.10127523523883   -2.52208260763853    2.52050460196148
H         2.61039211697800   -1.70195547984881    1.01915236310057
H         1.08799991441991   -3.90694389977672    2.44619584825158
H        -0.54723191940324   -3.80327182483356   -0.29444178562083
H        -2.58386716644111   -3.05650533693864   -1.69304524884816
H        -4.35358058696842   -1.34451719118754   -2.08578824260246
H        -2.77816743840421    0.85115486583614    1.23955395923227
H         1.68673514093746   -5.38598753960553    0.57808292302910
H         1.54303801664921   -4.04528403204628   -0.58781786022645
Cl        0.90435705004730    0.23857497635471    0.29315430568113
