78
 energy: -121.547484532934 gnorm: 0.000490285204 xtb: 6.4.1 (afa7bdf)
Ir       -0.37611811991069   -0.47834292850368    1.60418731702641
C        -1.80630000104375    1.38087739953819    4.10801116276983
C        -0.59089219368504    0.75036298664958    3.52142807194740
C        -0.14100763697995   -0.58329441815595    3.80879048916258
C         1.17371679445744   -0.74257196188368    3.23575271802977
C         2.10858559273504   -1.85942299660630    3.54742491546953
C         1.47398271646716    0.42953893532195    2.49296259917381
C         0.37263005105060    1.36696624961375    2.66985645851184
C         0.43583349130413    2.79716436334657    2.32821640459771
C         0.32669045660996    3.74365085909288    3.34686050195383
C         0.43239611927486    5.09061014415399    3.06480722119687
C         0.64358039014950    5.53520585218446    1.76044243015020
C         0.76388156055537    6.97079950232838    1.46550687547123
C         1.70687938558067    7.42867389464084    0.54691143587553
C         1.82640292244490    8.77877520455776    0.27375489383812
C         1.00260464889602    9.69400817803261    0.90875219943402
C         0.06035858945137    9.25030549042517    1.82234517177806
C        -0.05621927937118    7.90101782770598    2.10160000949349
C         0.74407097403873    4.58466494264156    0.74526469420270
C         0.64635401507685    3.23608461442807    1.02292478471806
C         2.77115929733602    0.77297104925225    1.84585195229625
C        -0.77779317713936   -1.50549978616378    4.79255717573144
H        -1.63560785584720    1.55183555681004    5.17134184430227
H        -2.67371792575798    0.73118094375059    4.01540488260345
H        -2.02338896396359    2.33200020234806    3.63140838997079
H         2.64211075931691   -1.61668704065024    4.46734637857953
H         2.83893027271785   -2.00347091257097    2.75687373146463
H         1.57656517204065   -2.79386990542785    3.70201024971983
H         0.19171371466138    3.42019741524693    4.36743000325473
H         0.37505943647023    5.80815933712132    3.86939568445783
H         2.36526606478060    6.72434235898029    0.05966608398991
H         2.56590837898247    9.12000011726785   -0.43641192413707
H         1.09471160354218   10.74809600391197    0.69200150434202
H        -0.58576875486675    9.96017174783330    2.31851396072304
H        -0.80322483201900    7.56454304356118    2.80567740369204
H         0.88530724726330    4.90686962725935   -0.27534378761527
H         0.70698060626427    2.51688043912743    0.22039861442639
H         3.46083022598925   -0.06427215178136    1.88256468793319
H         2.62278830600945    1.06091436555839    0.80741303713663
H         3.21636362671894    1.62255249273047    2.36324251701403
H        -1.85996924209063   -1.40859577284715    4.77627721927100
H        -0.50946051294520   -2.53887749461615    4.59212546848966
H        -0.43031255279460   -1.25499561612143    5.79558479249816
C         0.29090713230390   -7.23981746713406    2.56694916903294
O         1.47821498868722   -6.73227247200747    1.98398595111333
C         1.48276369212162   -5.47810936218883    1.49728828317939
C         0.41235572194734   -4.59112160471758    1.52779864311840
C         0.54261784087172   -3.30229633267487    1.00226292162230
N        -0.54056023367162   -2.41552304037428    1.02210308489512
C        -1.72480280337577   -2.81834815516412    0.68605005809092
C        -2.76392714220872   -1.83555693236750    0.65598787805602
C        -4.08958375527960   -2.13617470643302    0.28527613228279
C        -5.00749033278961   -1.12672982235921    0.22319518584927
C        -4.59231227483625    0.20174747864865    0.45756189099634
C        -5.47146918894706    1.29577628110801    0.33678986317580
C        -5.02140817900744    2.57684721168371    0.51156440185294
C        -3.66792777893949    2.81237341660327    0.80094834887800
C        -2.79251185806617    1.77088363161030    0.95252542254605
C        -3.22827410742171    0.44048096383161    0.80549151301250
N        -2.36254858072480   -0.59205009469969    0.96412881905649
C         1.74525847168304   -2.88138701741957    0.44271734128837
C         2.81185988997893   -3.76144982157625    0.38557259258550
C         2.67857607597945   -5.03003158589736    0.90811902772495
F         3.72908590848303   -5.87443038365372    0.86135423808404
H         0.00451140920299   -6.65998804632230    3.44759149070381
H        -0.52730765391602   -7.25787560890580    1.84287348125907
H         0.53205363209655   -8.25737264842070    2.86666699426682
H        -0.52025389441895   -4.88039083025424    1.98456182720431
H        -1.91386417368039   -3.83458643926137    0.36062478382883
H        -4.35333251259906   -3.15736153441537    0.06507646836802
H        -6.03876254077329   -1.32247001606377   -0.02708537911412
H        -6.50340953439404    1.10119921121048    0.08809650815736
H        -5.69742147612140    3.41136105824943    0.41060864005587
H        -3.31377304661332    3.82649899934595    0.90006741803808
H        -1.74712002691398    1.95773078045704    1.13678876716960
H         1.82101109761166   -1.89128227887462    0.02281650114769
H         3.74993811320629   -3.47450718642880   -0.06111781328125
Cl        0.12621374868817    0.08341119480430   -0.66278267923121
