78
 energy: -117.325122691723 gnorm: 0.000418546069 xtb: 6.4.1 (afa7bdf)
Ir       -0.50587949674862   -0.92795826516466    1.52271535066057
C        -1.97977751395134    0.81343779175269    4.06611987135147
C        -0.75405473064609    0.19396285150993    3.48855959575421
C        -0.31262636229217   -1.15395206737762    3.72425938858423
C         1.01280027351625   -1.28907627504028    3.17232559866465
C         1.93831845120654   -2.42421117438158    3.44826890531214
C         1.32680964752589   -0.08457581517552    2.48824679218224
C         0.22177758622893    0.84549510176748    2.68557083086352
C         0.28522559243883    2.29085590719659    2.41088489758095
C         0.27278666829566    3.17889224613844    3.48558216183051
C         0.39219095136715    4.53745250253771    3.27236990442487
C         0.52295437426277    5.05022788603812    1.98270440166557
C         0.67772713661406    6.49583812661847    1.76001143897558
C         1.57820039890991    6.96987617391307    0.80758799438278
C         1.74023712132919    8.32789548558021    0.60461824153991
C         1.00134135543852    9.23620178672376    1.34519823896526
C         0.09999022532764    8.77667505609517    2.29161787838694
C        -0.05890969795047    7.41875938283572    2.49999980909242
C         0.51898127955514    4.15812204161733    0.91156489656860
C         0.40366443093160    2.79801442125220    1.12053160378888
C         2.64522837508041    0.29397379569243    1.90692914407870
C        -0.96334903829680   -2.11838528734921    4.65754289389515
H        -1.83824946426875    0.94587109534293    5.13912059719118
H        -2.85293807214428    0.17947952165597    3.92638867386611
H        -2.16473911968683    1.78790197437522    3.62176104096251
H         2.38057804613079   -2.27981576993948    4.43471349875540
H         2.73979212921021   -2.46872595783571    2.71740921040905
H         1.41420744824762   -3.37662987267692    3.44906967344444
H         0.19720864430354    2.79912014826293    4.49340518366688
H         0.41033667647191    5.20927800246711    4.11761214229066
H         2.17081638086094    6.26941325149819    0.23733719038992
H         2.44751427637602    8.68014505018734   -0.13255402842158
H         1.12876100378822   10.29695311878000    1.18588471755321
H        -0.48090851733299    9.48123938760163    2.86942050174600
H        -0.77384989620324    7.07100460290182    3.23145430680191
H         0.59277977971331    4.53592891380077   -0.09731718821094
H         0.38539008897999    2.12270391689786    0.27891862816602
H         3.20796463124286   -0.58207721469514    1.59698285382835
H         2.51542112828583    0.95273680398307    1.05213599867549
H         3.22342068470634    0.83029996501660    2.66059708366435
H        -2.04482951334789   -2.01510605798188    4.63809059506404
H        -0.69873162542003   -3.14264486747304    4.40988011399688
H        -0.62225066885951   -1.91792483973330    5.67404684662684
C         3.56226616629558   -6.55855489201588    0.64805744544320
C         2.44100557742197   -5.57246061973028    0.69740272653874
C         2.64026014394528   -4.25109977030742    0.30156453515554
C         1.61159312680699   -3.33309102818202    0.33653800221729
C         0.33806774460699   -3.73008006635701    0.74637283770144
N        -0.70231891706815   -2.79595553898171    0.75507144993912
C        -1.85770232565001   -3.09817155630122    0.24928280753866
C        -2.85925512060548   -2.08109794864266    0.27425271294341
C        -4.13468710189559   -2.19502094051599   -0.28914899462672
C        -4.98897089700881   -1.11872934760519   -0.25329569066256
C        -4.55683439902047    0.08097376204495    0.33764467541481
C        -5.39227130179730    1.24993554033530    0.39480132213782
C        -6.68844306935826    1.47016243212120   -0.02626602970711
C        -6.98274411468458    2.81120240048538    0.28256265597044
C        -5.85557183275788    3.31817285550110    0.86601393507740
O        -4.89862608534289    2.38970066985320    0.94058446058868
C        -3.26629236137977    0.11356828336550    0.88268086039056
N        -2.45351418250522   -0.92859776274591    0.86704120555712
C         0.12369442446941   -5.05259584196054    1.13656290872892
C         1.17020091571103   -5.95309201176770    1.11996491953117
H         3.38168559845544   -7.39300865753017    1.32037659850505
H         3.65737750445354   -6.95448688989168   -0.36347159174078
H         4.50696288447586   -6.08727754752430    0.90828662848806
H         3.61712530978778   -3.94161269226507   -0.03858179159977
H         1.76137096082430   -2.31497242701956    0.01075534967162
H        -2.04207570323357   -4.05710748578084   -0.22047610499063
H        -4.42647703928116   -3.12358573182568   -0.75207989976763
H        -5.97437989741218   -1.18752234854987   -0.68309764718541
H        -7.34778398596010    0.76786642889014   -0.49218995911729
H        -7.90042678081004    3.32950635702430    0.09708335303690
H        -5.62917452450125    4.29194918886359    1.25355950153192
H        -2.90049855505719    1.02314252561403    1.33578340854995
H        -0.85254696806964   -5.35856822191111    1.48118176480710
H         0.99759318485712   -6.97051999130825    1.43723924258659
Cl       -0.00897244788033   -0.24093897057329   -0.71809507769097
