74
 energy: -109.755310937864 gnorm: 0.000378304825 xtb: 6.4.1 (afa7bdf)
Ir       -0.92308415492364   -0.79168655213468    1.47211501502969
C        -2.31302378584777    1.49927179869674    3.74278103870067
C        -1.19716506838362    0.62598608383447    3.27447253049002
C        -1.08708434213372   -0.75973146553320    3.68670075069975
C        -2.05227268115663   -1.45212965133359    4.58821332241227
C         0.23329974454911   -1.21485790015373    3.36998535748827
C         0.85154455406741   -2.47286671103931    3.87093429498684
C         0.87606862312623   -0.18447836202934    2.62080264751264
C         2.31046412169510   -0.17239334938674    2.20964358970023
C         0.00197403822996    0.98276404842703    2.60519115370255
C         0.49996665212890    2.34534267238748    2.20654213399368
C        -0.38146605470743    3.12443078952202    1.22537176045315
C         0.30426428011655    4.43530146756854    0.84890908265457
C         0.56755005763052    5.27984036962396    2.09317318668166
C         1.42050920123025    4.50430092927954    3.09359295075192
C         0.74653450834037    3.18790785830452    3.47064321851790
H        -3.28096416249755    1.04325848836412    3.54694638844353
H        -2.28951240762091    2.47885383126799    3.28052935160915
H        -2.21688288150123    1.62315517117473    4.82232451489866
H        -1.95054678208700   -2.53116873500195    4.51828178171817
H        -1.85107168122777   -1.15890118176052    5.61924333609692
H        -3.07659290677847   -1.17678683226906    4.35364383520661
H         0.12997522408021   -3.28385236586203    3.91879401456209
H         1.68802542507518   -2.78359159734292    3.25205797649393
H         1.22243595985848   -2.29206929850660    4.88072520484260
H         2.72192570165368   -1.17711459384567    2.19488975473489
H         2.43104503470997    0.26324254320924    1.22039512231342
H         2.88706313264602    0.42399416430410    2.91729759698615
H         1.46491808305564    2.20543998189452    1.71068095020818
H        -1.34873246078883    3.35731509920445    1.67140787476143
H        -0.54172759247062    2.52309278674117    0.32920608110983
H        -0.32314579633698    4.98963137179342    0.14817623223380
H         1.25057357969273    4.22232119791837    0.34640623008852
H        -0.38348107504765    5.55102473341289    2.55797192438782
H         1.07464108088816    6.20525948133481    1.81331657651039
H         1.57867127010005    5.10473550393020    3.99177028715274
H         2.39960425253182    4.30252282608380    2.65254589764581
H        -0.20086110281727    3.39727038727986    3.96747257886050
H         1.37733552031760    2.63326481707771    4.16795808334170
C         2.47220356105633   -7.59517259066310    1.91733781172571
O         1.34318562756241   -6.73908002491024    1.88583748690378
C         1.46619040753723   -5.51295661616708    1.34853200522636
C         2.64630576252945   -4.98432531602151    0.82621304114464
C         2.62428204477780   -3.70059330366564    0.30780808790766
F         3.77300130667018   -3.19866068254684   -0.19237974705456
C         1.49505098102815   -2.90941082018874    0.29129653104425
C         0.31777490944383   -3.45200205132571    0.80654694607281
N        -0.85127183493435   -2.67778826065996    0.77885214995192
C        -1.95445545390603   -3.19956439085474    0.34598357937233
C        -3.09790498491601   -2.34372550155629    0.27667232162240
C        -4.34364856631889   -2.77751706980478   -0.21994883326112
C        -5.37018865898703   -1.88178096381729   -0.31513556139935
C        -5.13893084117092   -0.52985687140593    0.01703467478197
C        -6.12794929040572    0.46288837179275   -0.12653394718149
C        -5.84626934488296    1.77475516740128    0.14575549821748
C        -4.55732082798301    2.14687982134082    0.56031680671447
C        -3.58167569557890    1.20334484208768    0.73693611809819
C        -3.84535274432376   -0.15635937778229    0.49079783601736
N        -2.87369246004207   -1.08283147745834    0.67534965512408
C         0.30208845431214   -4.73789597942203    1.32964299396780
H         2.12377490533246   -8.51613646993328    2.37949517764654
H         3.27741774030245   -7.16660512856166    2.51911040288170
H         2.83560640280321   -7.80795755023901    0.90886067171466
H         3.57057147997491   -5.53652519176547    0.80805698248931
H         1.50818613707583   -1.92276537919225   -0.14020943189480
H        -1.99667911621073   -4.21899103944353   -0.01911127840543
H        -4.46151711709792   -3.80904530485456   -0.50841298922189
H        -6.34602351102660   -2.18253390089982   -0.66389217870886
H        -7.10635042775503    0.16829844929446   -0.47357603129702
H        -6.60601797919501    2.53116369190082    0.02641770555455
H        -4.33894021463900    3.18899016938466    0.73362140521486
H        -2.57812500466878    1.47843029153545    1.01638749023774
H        -0.59618748949991   -5.15781265472207    1.75189315184380
Cl       -0.32711226624719   -0.02751869330878   -0.70722216100954
