76
 energy: -104.586438421177 gnorm: 0.000266483191 xtb: 6.4.1 (afa7bdf)
Ir       -0.32972045589272   -1.14871434499048    1.72738591410124
C        -2.28017684045647    0.69726381887588    3.88676664676364
C        -1.02056923694498   -0.03428893638754    3.57385815216441
C        -0.76249044524017   -1.41204096452287    3.90828100518813
C         0.64432028751390   -1.64938465142696    3.74252671815875
C         1.37445918227806   -2.83669030067146    4.26665701579863
C         1.22974271488132   -0.47601943785491    3.18632324993910
C         0.19311668306097    0.54026548874482    3.10534992736952
C         0.40220273626007    1.96958908600570    2.83423270189534
C         1.30848296631206    2.68958119200006    3.61064032869031
C         1.46166759596411    4.04927828508033    3.42723010835923
C         0.72913316960855    4.72804381366956    2.45499033928294
C         0.87626784846257    6.18024178331283    2.27503769176198
C         0.92237864352781    6.74087453163726    1.00027457719009
C         1.04822314041466    8.10834859227186    0.83714769286977
C         1.12311846087013    8.93832275672427    1.94387531481241
C         1.07657697429986    8.39154648472493    3.21599163310787
C         0.95753538080658    7.02392719623103    3.38111709019874
C        -0.15629887726481    3.99920740950755    1.66328176061916
C        -0.32358884924332    2.64278020522326    1.85519412743980
C         2.68664352050212   -0.23781907926689    2.97125033256321
C        -1.71628032943030   -2.31289466666286    4.61777910046802
H        -2.33459379890924    0.83899055477288    4.96722600238951
H        -3.16170971477957    0.13570366388598    3.58538198572146
H        -2.28900542289542    1.67854469174028    3.41912239919854
H         1.52283444182902   -2.69756465837542    5.33874172560332
H         2.35326945281875   -2.93633122161765    3.80729698389940
H         0.80752856703323   -3.75457189323517    4.13224331643841
H         1.87750879608303    2.18604726467979    4.37700451865534
H         2.16956929083660    4.59229913307954    4.03575223746638
H         0.87988338282167    6.09935702946461    0.13200847239052
H         1.08825310016293    8.52974163563265   -0.15709968309869
H         1.21792095575101   10.00666278715738    1.81619187523641
H         1.13169648216054    9.03489363927428    4.08223587871134
H         0.90560104470091    6.60745012066428    4.37658926245419
H        -0.73276619519220    4.50604037150606    0.90381489348314
H        -0.99535611029598    2.09221158977114    1.21408746975617
H         3.16415959494380   -1.10255093929209    2.51744001642078
H         2.83818447684413    0.62435350378202    2.32693441811808
H         3.17402565905338   -0.04758493812122    3.92822689898867
H        -2.74106554232494   -2.11428037876284    4.31684880015903
H        -1.48866501818670   -3.35807083165761    4.42767632807342
H        -1.63953365803961   -2.14028032842203    5.69209425656679
C         4.79376518817608   -3.07985458875094    0.52064648084063
C         3.47996714463918   -3.74284475419496    0.92628817300998
C         2.25452470136268   -3.21573092273655    0.16216889277017
C         2.38032587931156   -3.54993008871045   -1.32927478752828
C         1.27059527130579   -2.98610123276113   -2.21177579933533
C         0.97290457900008   -3.81503529060781    0.79110966643334
N        -0.16068541436718   -2.92569062021735    0.72507151573455
C        -1.16540469655719   -3.24904529362177   -0.01374381518864
C        -2.25079870484335   -2.31518037662945   -0.11782812312119
C        -3.34345751094837   -2.46660870769939   -0.97114425019112
C        -4.29715865999483   -1.46705752278711   -1.02260075521112
C        -4.12637037540422   -0.34177798928381   -0.22417274848054
C        -3.01868425100846   -0.26134620515250    0.60172548666544
N        -2.10494195350181   -1.22453925212292    0.66945683116647
H         4.69330590764858   -1.99663497254285    0.51298523846861
H         5.11710566519266   -3.40029320438903   -0.46564050060476
H         5.57643860877690   -3.34755540902373    1.22721298250909
H         3.56019130034805   -4.82162840720664    0.77715658932980
H         3.33247975456458   -3.57115657066914    1.99377956344214
H         2.20778399336974   -2.12732529185708    0.27039252418759
H         3.32438916394604   -3.13186286790253   -1.67791651646068
H         2.43706550575876   -4.63433341409199   -1.45413546507451
H         0.35558041984866   -3.56403557771833   -2.13071611791563
H         1.58312910694993   -3.00868386282698   -3.25354076668278
H         1.05736918258120   -1.95498822099446   -1.94295930798391
H         1.16845196701644   -4.01498563350792    1.84637587358891
H         0.73646196814725   -4.76179735325527    0.29625646875982
H        -1.20070587947137   -4.18559369236455   -0.55998673740806
H        -3.42237551918418   -3.34980219083154   -1.58396800788147
H        -5.15244768099565   -1.55461517883527   -1.67366269175597
H        -4.84207277401226    0.46375592951383   -0.23707583451106
H        -2.86542663466462    0.60367651466777    1.22894622622125
Cl        0.49555169230565   -0.01085680906909   -0.19577277318580
