77
 energy: -122.877368965030 gnorm: 0.000713332742 xtb: 6.4.1 (afa7bdf)
Ir       -0.35730615316200   -0.47652689992129    1.78210619696262
C        -1.71318309425422    1.16358239042392    4.49539321295412
C        -0.52984424980355    0.56968815831025    3.81857295228319
C        -0.10971159820952   -0.79294561652966    3.98095226501918
C         1.17707632484315   -0.93768543468934    3.35480106517315
C         2.11805057134150   -2.07288741520464    3.56082246473058
C         1.50891874405503    0.30789241532166    2.73469001760191
C         0.44337996656276    1.24676890966577    3.01643569492461
C         0.53273328293942    2.69567346611191    2.78457303101769
C         0.43215926920860    3.57721967226503    3.85910487213715
C         0.55406636142427    4.93836495589290    3.66142319207997
C         0.77766095619181    5.46133419427633    2.38892224269551
C         0.90732668358617    6.91112763510059    2.18116125969469
C         1.85739886437417    7.41930250415386    1.29699993443534
C         1.98457511250564    8.78311170644502    1.10751820260795
C         1.16109822619892    9.66191245068467    1.79238258357761
C         0.20998451146173    9.16779341489740    2.67043723083734
C         0.08546750539102    7.80463590749683    2.86597548853108
C         0.87900304264418    4.57414075097300    1.31765470736403
C         0.76146624214697    3.21267921419566    1.51035888119642
C         2.83197976191414    0.64348408150598    2.14460189087332
C        -0.75147208820519   -1.78785677689579    4.88594144668679
H        -1.53435224162145    1.16508711251923    5.57139904156867
H        -2.60957207522584    0.57427545323460    4.31519041720862
H        -1.88488311918171    2.18195719853254    4.16308019434960
H         2.64943227842568   -1.90685998998094    4.49906975794034
H         2.85283376133656   -2.12771899457228    2.76341102903394
H         1.59592801102822   -3.02278592971091    3.63251684193672
H         0.28853529313834    3.19423249015704    4.85724199195437
H         0.49848873566128    5.60518908996965    4.50847972189041
H         2.51597779594515    6.74348168617838    0.77110678450821
H         2.73027243019300    9.16342364111319    0.42423244993180
H         1.26021630913508   10.72690083947269    1.64182200692136
H        -0.43721424700741    9.84885293908068    3.20397756310805
H        -0.66970648816683    7.42823074622797    3.54048195486157
H         1.03513068433511    4.95865619948621    0.32056416803257
H         0.81496565485729    2.54232527568927    0.66590276240054
H         3.14241238390754   -0.10032582484289    1.41438232002798
H         2.80709727412729    1.61680663545756    1.66425481842997
H         3.57689532604820    0.66415460842059    2.94105943503168
H        -1.83000967365600   -1.66077195688808    4.90790214091331
H        -0.51631612663952   -2.80424912373093    4.58212263041880
H        -0.37344487923757   -1.64153662096000    5.89848837693723
C         1.32435605595502   -7.88788970667435    2.34578318834178
O         0.44296208226306   -6.77784762523739    2.31483504144397
C         0.84907141969367   -5.63456876246580    1.73870167570779
C         2.11080216596079   -5.42461861973020    1.18138884382796
C         2.39235141372152   -4.18998162300981    0.62245822761796
F         3.61574747873842   -3.99828052145901    0.08789862089435
C         1.49082630778378   -3.14617401795775    0.59890427860917
C         0.22814987723500   -3.37225923514383    1.14716946403754
N        -0.72179644008328   -2.33888897449239    1.09204303322640
C        -1.88961990462905   -2.58806840484103    0.59134174654080
C        -2.79793425726059   -1.49223292406066    0.45623068752923
C        -4.00715801839701   -1.58575876993907   -0.23509190641842
C        -4.77354851238040   -0.44937008216403   -0.37933632532912
C        -4.30123667090573    0.76385357418534    0.13178596522960
C        -5.16270741398490    1.87949075767340    0.04941484769860
N        -5.93107644810758    2.72888096385726   -0.01390036082199
C        -3.04414446172158    0.80365618676896    0.77256259998705
S        -2.28364536960947    2.23761554944511    1.39233167737470
C        -2.80370017762690    3.58885047009267    0.29967754106917
N        -2.34491302001817   -0.32432575014722    0.96915905418108
C        -0.09213008620943   -4.59933344081823    1.70973737701312
H         2.22478209859698   -7.66282498661906    2.92236220568807
H         0.76855059802122   -8.68417542621689    2.83579972941069
H         1.59853722423527   -8.20236328496218    1.33581275241306
H         2.87135035918483   -6.18673954300072    1.16710075090010
H         1.73403467637579   -2.20362655085355    0.13691190086343
H        -2.14774364267488   -3.56919809255175    0.21019773440878
H        -4.32381482600938   -2.53074975936607   -0.64307063349873
H        -5.73189854728383   -0.47761055064341   -0.87471564167137
H        -2.87124583898555    3.22712172545204   -0.72048273001208
H        -3.74100441115970    4.02343391174052    0.62876012954828
H        -2.00403750047416    4.32094266928144    0.37916443154764
H        -1.05970870402292   -4.77256168876291    2.15194501282167
Cl        0.26417116330805    0.13792537311986   -0.42787416101106
