78
 energy: -114.028622239847 gnorm: 0.000545276196 xtb: 6.4.1 (afa7bdf)
Ir        0.02840070541887   -0.41263301856891    2.15657793676069
C        -1.88339733565501    1.62886034469646    4.16275612165703
C        -0.61728380632852    0.89021234170185    3.89536835227034
C        -0.31340097103148   -0.43508649641756    4.37064701182214
C         1.09113483586987   -0.66611433294126    4.16068860482466
C         1.88605073006001   -1.77863192673276    4.75287799153990
C         1.62441664013984    0.45400977459771    3.46351760725680
C         0.55925611911254    1.42936826620405    3.30444302544098
C         0.73349794724609    2.81952368547286    2.85604098111488
C         1.62831166720386    3.64871535529365    3.52952265680653
C         1.77174935051273    4.97097930796133    3.15939980926696
C         1.03983023986124    5.49944055620620    2.09792273098009
C         1.19217135714628    6.90898442113987    1.70620350141449
C         1.27490137468525    7.26875831965578    0.36283010311756
C         1.41523852267826    8.59518611735967   -0.00230811834577
C         1.46670097041130    9.58312361546874    0.96777689840949
C         1.38295502663877    9.23612601731766    2.30646577952999
C         1.25081185795625    7.90955951833800    2.67397176939231
C         0.15809101037627    4.66235133607522    1.41725176895779
C         0.00062254833945    3.34400568822353    1.79531201575674
C         3.06342505538150    0.69757537387990    3.15967806290785
C        -1.21457736305483   -1.26654688011924    5.22000102492411
H        -1.92633818943798    1.86819955121027    5.22605915921168
H        -2.76048075098257    1.03008573370281    3.92596614784702
H        -1.90939127356698    2.56237389840566    3.60590312496790
H         2.23836462062138   -1.46204880721623    5.73582999850171
H         2.75929699155727   -2.00837207715211    4.14834582345953
H         1.28466193589703   -2.67309609661467    4.88983805102250
H         2.19982254105686    3.26006035900916    4.35841619247542
H         2.47364967908830    5.59970848680560    3.68692352932468
H         1.25059956358838    6.50195256635474   -0.39800952147001
H         1.48564412243353    8.86055224160271   -1.04742447023211
H         1.57214084572360   10.61942652321312    0.68184115854971
H         1.42010304496857   10.00344455627633    3.06625944250572
H         1.17178559475290    7.64731469946026    3.71918293882656
H        -0.41830193800735    5.05582908304698    0.59327796525770
H        -0.66553621594596    2.70272062413133    1.23765871012769
H         3.57459853468700   -0.22412840038031    2.89149590052451
H         3.16553947485217    1.40654795771490    2.34184817883682
H         3.55876539854681    1.10974224091108    4.03936980101471
H        -2.25708570094007   -1.09073364313644    4.97139940853825
H        -0.99952686166487   -2.32541428609378    5.10670705546657
H        -1.06493206846316   -1.00145619710566    6.26732586084894
C         6.06046950869392   -2.69738969605394    1.33119738858646
C         4.97285215703537   -3.00262544430469    0.64797790187043
C         3.71922269308234   -3.55751399122172    1.25047528035591
C         2.51996880666833   -2.66274025556022    0.92785862831462
C         1.23403672231744   -3.19907367527617    1.57015314085426
N         0.14143647924262   -2.28311660340001    1.35669682314427
C        -0.76025652375428   -2.57634913565389    0.48182818854756
C        -1.80652276200560   -1.62607657431276    0.26283152344354
C        -2.82678445937146   -1.76730941195028   -0.68232000209856
C        -3.76245315801204   -0.76973985839792   -0.82030316399315
C        -3.67283455616076    0.37137243879549   -0.00472280716975
C        -4.63262703092144    1.43842524310700   -0.11253915563245
C        -4.75488541444828    2.64138438733591    0.55294801738585
C        -5.89357044113663    3.27470642124492    0.02157524274902
C        -6.38824650063248    2.42299160604440   -0.92599571192098
O        -5.63999641432334    1.32119044452177   -1.01280906767533
C        -2.62345704841706    0.43311819903973    0.91902829001198
N        -1.72352267344548   -0.52702066293922    1.05425664028345
H         6.12267733133051   -2.83954579626296    2.39818579323862
H         6.94143849781203   -2.30259939699401    0.85465915743791
H         4.94159936481883   -2.84758432395596   -0.42262200204999
H         3.84196284282848   -3.65196730669540    2.33081856126517
H         3.54260080428585   -4.55617177451821    0.84180673129521
H         2.38209621624341   -2.60271530112177   -0.15241087312499
H         2.70620407459944   -1.64923317862905    1.28501579417792
H         0.99418267885521   -4.17748655873986    1.14229287529339
H         1.38867797109802   -3.31266446575354    2.64402739356832
H        -0.73585252030824   -3.50518126552073   -0.07812380422161
H        -2.85985625187854   -2.65112421336063   -1.29849160053146
H        -4.55847359106221   -0.84561783496276   -1.54346499461750
H        -4.11517555996171    3.02810260484311    1.31848030705004
H        -6.29181395515743    4.22784217710365    0.30098841313958
H        -7.23739807178119    2.49552613472978   -1.57667440261916
H        -2.52618809350904    1.29268188509719    1.56313534644538
Cl        0.93690604567839    0.36909878475073    0.09385605580676
