57
 energy: -84.752635707920 gnorm: 0.000617904285 xtb: 6.4.1 (afa7bdf)
Ir        0.05637410320610   -1.32654178134349    1.45626181684226
C        -1.90681102145025    1.00006746376567    3.17529337844422
C        -0.67921862180354    0.17461430200117    3.02678696463987
C        -0.53531488432890   -1.14275164726853    3.60996465286825
C        -1.59358244028027   -1.85205407120699    4.38390425733776
C         0.85360538874299   -1.47819368161034    3.61545388750886
C         1.44185730647209   -2.55387033810947    4.46093671531317
C         1.54573545438588   -0.46974124093799    2.86187836077107
C         3.02076483960900   -0.29377445100795    2.74410091943896
C         0.58651175208462    0.57636128392623    2.53405257010705
C         0.96128772611242    1.90661575557668    1.97885883136566
H        -2.03017070010022    1.22669779301897    4.23536202151504
H        -2.79850919382680    0.46882984210007    2.84994083970191
H        -1.83282865739974    1.93532835010341    2.63127916909366
H        -2.57821349857426   -1.67347363731197    3.96064902630635
H        -1.40741517134709   -2.92202960691807    4.41367727954077
H        -1.59736523254135   -1.48091233443634    5.40976133014658
H         0.98878452078868   -3.52321011067301    4.26524973633999
H         2.51798809122140   -2.62256082606362    4.33767191098496
H         1.23738626791641   -2.30430072154337    5.50335295878249
H         3.28098000020287    0.11246532690385    1.76990876522007
H         3.55269299211674   -1.22844202849146    2.88833028651484
H         3.35204938990578    0.41615799437286    3.50297045397278
H         0.08424144970903    2.47788450573776    1.69248113561918
H         1.59806315991493    1.79317443062705    1.10454144394792
H         1.51608217757405    2.46702151174411    2.73140333823670
F        -3.64181732609508   -4.62308578093739   -0.19621392685851
C        -3.36486623124944   -3.31779995218775   -0.13867089775704
C        -4.29935169559354   -2.38219698358978   -0.54693887997928
C        -3.92174656718383   -1.04791342299727   -0.53770097280584
C        -2.65731148868835   -0.70760789131849   -0.07036777918531
Br       -2.10077771568187    1.08554672085178   -0.17802527488095
N        -1.79678192250921   -1.59906010331158    0.40986915773062
C        -2.10757522997027   -2.91412653569158    0.32376260016704
C        -1.00877549475763   -3.80139114335972    0.56306275197484
N         0.14052387891004   -3.29044082623665    0.85998463544124
C         1.29972242886153   -4.14585556978431    0.67641421707272
C         2.57380280704425   -3.53734898239000    1.24778220472835
C         3.77315631224442   -4.44694212910149    0.98406688409260
C         3.95560944635817   -4.67709699615656   -0.51149769873489
C         2.68303630781177   -5.27416476378654   -1.10100712016643
C         1.48967240516958   -4.36154200958075   -0.84005232036525
H        -5.27288478965903   -2.69333627116702   -0.89133210447298
H        -4.58863720364703   -0.27799970822736   -0.89150768602843
H        -1.13748159890701   -4.86040955823495    0.36236288970212
H         1.10443235455423   -5.11816399895054    1.14730945309640
H         2.46159521906349   -3.39942711267960    2.31852946398106
H         2.73807371328260   -2.56861238994436    0.77410624476159
H         3.62381425862624   -5.40632348750356    1.48468319559812
H         4.67170875886058   -3.99029637121639    1.40006875859513
H         4.17195168878905   -3.72705224516546   -1.00343667775698
H         4.79883804390933   -5.34649590713689   -0.68816387104794
H         2.50007786156958   -6.25577195215404   -0.65751908832264
H         2.79692820602529   -5.41039311946802   -2.17759960143623
H         1.65533459036698   -3.38904336138635   -1.30652712481557
H         0.58621888742987   -4.79654484013437   -1.27140434079155
Cl        1.04823389673584   -0.70535039001276   -0.61365014207828
