75
 energy: -124.548592798342 gnorm: 0.000150485984 xtb: 6.4.1 (afa7bdf)
Ir       -0.72245090481609   -1.15049100864906    1.61019036044520
C        -2.42035328967224    0.41785823182425    4.11312711487310
C        -1.11932370557796   -0.03509003074784    3.54591848762685
C        -0.48144241337895   -1.28224604698732    3.85262616808714
C        -1.00662084391064   -2.26172688987045    4.84668401718505
C         0.83726201873315   -1.26082172825302    3.27054595559909
C         1.96479562578342   -2.19633732114487    3.54951057417377
C         0.98175122404515   -0.04248996761435    2.55176098791338
C         2.25546565958317    0.44580261497348    1.95871859547102
C        -0.24436903239512    0.71861271135103    2.70154691205583
C        -0.38777405738609    2.13723465515721    2.33878559957717
C        -0.62341086587810    3.07632116287503    3.34190216979697
C        -0.68964463741550    4.41484577357216    3.00597903613844
F        -0.91325234162057    5.31748575960961    3.98451392315338
C        -0.53425810939341    4.86750692115374    1.70798955447258
C        -0.30820161985226    3.90963651185762    0.73482660547927
F        -0.15669131115637    4.31437437039100   -0.54363421354607
C        -0.23254872829419    2.56021849916956    1.02079524681948
H        -2.76505587615935    1.32855110588160    3.63133878299996
H        -2.29168827870537    0.61885614757892    5.17723543625759
H        -3.18365695591518   -0.35114768663470    4.01698930137551
H        -0.49015095466972   -3.21389055834359    4.78063493759351
H        -0.85742562600714   -1.86209868279535    5.85051240451812
H        -2.07187007626358   -2.42773467633518    4.70848301400956
H         2.76393116720164   -1.64579943918716    4.04576219519664
H         1.65580440929311   -3.01088605370638    4.19504411187534
H         2.37215008337968   -2.61298029577925    2.63042161379653
H         2.69960796975102   -0.30937065120278    1.31376800118804
H         2.09875468338149    1.35206951520608    1.38112284030273
H         2.96221201756929    0.65955432075903    2.76195622832400
H        -0.72711852309360    2.78152543013673    4.37320288317262
H        -0.58557167706607    5.91593334191232    1.46647467829139
H        -0.07183451896102    1.84897146708104    0.22546794878709
C         5.23380252262970   -8.96787649654667    2.83185419852520
O         4.79033448664910   -8.23773570045428    1.70498603597522
C         3.76380369818853   -7.36503791958877    1.83906003024986
C         3.08957459993574   -7.10769655238403    3.05283690852793
C         2.05884311174654   -6.21142643048769    3.09333267980441
C         1.64205700885111   -5.51867370341276    1.93765306696155
C         0.59041587058265   -4.58614358209895    1.96094919198531
C         0.19636848245370   -3.94470074984628    0.80911313126935
N        -0.86714619260872   -3.03151707785223    0.82224840235228
C        -1.87225508097468   -3.22479910763083    0.02451045041733
C        -2.87113827276458   -2.20861034346056   -0.02614277516478
C        -4.03320780091871   -2.26624122687103   -0.80385862445850
C        -4.91476919250538   -1.21303453404468   -0.78230420810960
C        -4.62370719285445   -0.09284692869736    0.01619757680136
C        -5.50940813691015    1.03681702755658    0.09581400795424
C        -6.71655905426743    1.29683161225832   -0.52121297041685
C        -7.13421442667229    2.55892006981011   -0.05981581506974
C        -6.16325653270657    2.98322827760267    0.80307909328190
O        -5.18545953578411    2.07828553823882    0.90350549885477
C        -3.43421974555018   -0.10637273825435    0.75557956920688
N        -2.59296481411681   -1.12784391196271    0.74957744855197
C         0.85384225718208   -4.21727963725405   -0.41524756228369
C         1.89309842973626   -5.09669573901892   -0.45363034413671
C         2.31814550758230   -5.77823742225685    0.71221510122706
C         3.37220205210244   -6.69958051398849    0.69194372015967
H         5.61770877679722   -8.30402361754102    3.61136545907007
H         6.04160676645717   -9.59927516261868    2.46699905142189
H         4.43748679139678   -9.59776827529334    3.23789674985591
H         3.38406868422075   -7.61898258716111    3.95513079523084
H         1.54985109141927   -6.02644256310274    4.02717481209092
H         0.05576567871436   -4.40957343334001    2.88017834428416
H        -1.94911857880122   -4.12050882305515   -0.58052139795125
H        -4.21617702855031   -3.13553649787449   -1.41449856868050
H        -5.81588325446271   -1.23948891557360   -1.37191446769673
H        -7.23846715213533    0.67163127237531   -1.21517834570973
H        -8.02930923535432    3.08035313389993   -0.32857887793284
H        -6.06785449307005    3.88000965378390    1.38297387230274
H        -3.17940822175449    0.74822555708669    1.36405464822847
H         0.53873693632105   -3.68511777579845   -1.29940470745159
H         2.40625150719524   -5.29144365017855   -1.38289832081451
H         3.89294410009933   -6.90571775402593   -0.22991591697448
Cl        0.03324107124930   -0.60526127434534   -0.58221541463143
