58
 energy: -101.000532797306 gnorm: 0.000577962709 xtb: 6.4.1 (afa7bdf)
Ir       -0.55239422578595   -1.47661611915174    1.03797281390927
C        -1.50235781264372    1.09644601392769    3.11492515860931
C        -0.46598384516587    0.14670361426627    2.62313872134433
C        -0.18920892055039   -1.14555322389167    3.21550091118534
C        -0.88275501251840   -1.70101355858101    4.41058612886619
C         1.03567022471682   -1.63878681892378    2.64936658238798
C         1.80777496295939   -2.81064837667945    3.14242541132468
C         1.44714913158071   -0.72323196314122    1.63161804178676
C         2.74359457119961   -0.72466177410146    0.89882748135141
C         0.52298406768363    0.40240818774225    1.64080315860994
C         0.73860678232797    1.66202646530729    0.87762584301426
H        -1.10060629597466    1.62775408034894    3.97894313648899
H        -2.40297318515188    0.57841154817865    3.43467557348164
H        -1.75956462935461    1.83691263685062    2.36207594953581
H        -1.94890414915124   -1.49356036345128    4.38144545396154
H        -0.73235325310250   -2.77353688093246    4.48960646746038
H        -0.47500323513330   -1.23321246713804    5.30758134056060
H         1.15329655140520   -3.58634954119145    3.52880295661013
H         2.42730258252758   -3.23303873424040    2.35719865431741
H         2.45903172380362   -2.47926026619731    3.95180067812725
H         2.60720148974391   -0.38391761520190   -0.12474458916892
H         3.19598193119505   -1.71121976228587    0.88690596448542
H         3.42902519798858   -0.03506098563190    1.39228783268538
H        -0.12383226085775    2.31867771012628    0.93543784843467
H         0.94222281417732    1.44489253034852   -0.16873724989394
H         1.60288441221493    2.18459150631884    1.28696980170549
C         4.82603232885264   -5.28950882953292   -0.62768195254785
O         3.70011802321984   -4.42985172460352   -0.57059295160819
C         2.55202649531008   -4.88076585060717   -0.03764517503927
C         2.37055565437247   -6.15260929745087    0.50809077507527
C         1.13784320815766   -6.49491448921316    1.04408411636347
Cl        0.92499421600026   -8.08010322508565    1.71813478787056
C         0.07383326147037   -5.61160653621047    1.05271817509304
C         0.26291856751062   -4.33845553275346    0.50863506552770
N        -0.78522254505222   -3.40730007161001    0.49871866378816
C        -1.96303622793794   -3.77251530420920    0.08865682933630
C        -2.98676822827647   -2.77612864477062    0.09118623284360
C        -4.26982367304904   -2.95823761395047   -0.43638741069986
C        -5.15846046142157   -1.90447280810975   -0.42925189261518
C        -4.72916972602816   -0.68647894492535    0.10736062464339
C        -5.63944521608277    0.51288583408141    0.11874468167773
F        -5.49791513851464    1.26142198055962   -0.99083344561696
F        -5.39087603604041    1.32825316163450    1.15539078858948
F        -6.93282911318120    0.17627311401425    0.18982417039541
C        -3.44321692438779   -0.56920807960596    0.61062707871225
N        -2.59180334109768   -1.58729439233550    0.61788158115724
C         1.48789801736726   -3.97388940875477   -0.02928678569714
H         4.61646649730885   -6.17929394815178   -1.22587035041068
H         5.60926114597857   -4.70654084371116   -1.10751115826580
H         5.15034255071304   -5.58234535061428    0.37414878441114
H         3.16766047323584   -6.87609608579044    0.52043863780029
H        -0.86656990225220   -5.89039900476349    1.49708893070488
H        -2.15150723891513   -4.77041864799890   -0.28805295670528
H        -4.54543583054295   -3.91378905754430   -0.85168200875952
H        -6.15720066611198   -2.00798971976017   -0.82430713393211
H        -3.09853651490685    0.36800132937343    1.02237480127503
H         1.61413440934137   -3.00638795458989   -0.48777770324336
Cl       -0.37958468319338   -0.94310589567953   -1.27696287131018
