77
 energy: -103.716641969504 gnorm: 0.000259225082 xtb: 6.4.1 (afa7bdf)
Ir       -0.56360090805816   -0.80142929339248    2.45612894262305
C        -2.68950861476234    1.61097496855906    4.08181779695886
C        -1.50976165270865    0.70478656509182    4.00886695126147
C        -1.59261599677174   -0.67436105862748    4.45182646793597
C        -2.84019791030179   -1.33516281181243    4.92755001642624
C        -0.26891300528896   -1.15603295331357    4.66828128485828
C         0.07109742298931   -2.36641217808457    5.46914550014127
C         0.63556661427925   -0.16192612842846    4.15951104137393
C         2.12063659251596   -0.18141317728938    4.31326301974578
C        -0.14807676656556    1.02384870518609    3.81453309345717
C         0.48312974022649    2.36596684756239    3.57235412388625
C        -0.00182691792444    3.10643291778305    2.32262545355787
C         0.77627458093785    4.40905694758816    2.16042884351843
C         0.60051881353762    5.29583132508764    3.39041926279301
C         1.05964538126830    4.55996170079772    4.64611603335146
C         0.29040252055663    3.25287432242172    4.81478717982051
H        -3.57891352070953    1.13617818008478    3.67657943758638
H        -2.52626289998655    2.54774052708275    3.56363978424882
H        -2.87955481421720    1.82386485996854    5.13549123681844
H        -2.72428472910367   -2.41440832247966    4.96275478082195
H        -3.07022432824073   -0.98332486606848    5.93393572690061
H        -3.68419691228947   -1.09009703817486    4.28845693573040
H        -0.19078174577386   -2.16118279635453    6.50831097894039
H        -0.49863213960462   -3.23817947404093    5.15583151221657
H         1.13307800436109   -2.58971680638545    5.43565462681390
H         2.49395348085507   -1.19612103895295    4.41377895419282
H         2.60553330474736    0.27998395349410    3.45648550354547
H         2.40027830470249    0.37879822675417    5.20585086633210
H         1.55781657589588    2.20700014115438    3.44440453032219
H        -1.06417697768519    3.33715216930069    2.39864819055163
H         0.14977725846537    2.47165745191933    1.44973473055874
H         0.43101725850258    4.93690106759362    1.26905430574326
H         1.83699187807707    4.18788234429146    2.02111218802937
H        -0.45182688059694    5.57100216056920    3.49456944009737
H         1.17344184797501    6.21756296899850    3.26991149246219
H         0.90581389776863    5.19071592440142    5.52412002957949
H         2.12913777177917    4.35049561036833    4.57034297763785
H        -0.76820721354826    3.47367657620433    4.94970303875842
H         0.64268050325393    2.72709177869876    5.70411040459343
C         6.38904236816677   -2.49976184471056   -0.27263001015664
C         5.02829987665779   -3.05980765516253    0.12787779775276
C         4.82582454401222   -3.00791143497535    1.64122416096480
C         3.52044970305961   -3.65366628628450    2.10879991149151
C         2.28705659823817   -2.89923807174146    1.61653296357961
C         1.01361092055263   -3.42243520728593    2.29850738076042
N        -0.13569238587719   -2.67103076108565    1.85612747343517
C        -0.89344778362758   -3.19492279420164    0.95306644934072
C        -1.92906001859029   -2.39331449962010    0.37512741578511
C        -2.70815115592691   -2.81937033733883   -0.70199606232044
C        -3.62421245217275   -1.94137971448643   -1.23840155057510
C        -3.69601422749855   -0.63714812647047   -0.73719839192619
C        -4.70418296497703    0.19786173876306   -1.26366963389755
N        -5.57456565161950    0.80080977802712   -1.70588057463107
C        -2.83040473234458   -0.25073465447939    0.30850111288433
S        -2.69833505236659    1.35686993915639    0.94995949739768
C        -3.09756441424658    2.47174990067849   -0.42611567820562
N        -2.02536652166059   -1.14901893385908    0.89294715228927
H         6.51875644155450   -2.54294138715737   -1.35183323454358
H         6.48247947273014   -1.46198657498729    0.04067617412716
H         7.19192274018005   -3.06981651392850    0.19063644383372
H         4.95094293397457   -4.09447192668888   -0.21440132538817
H         4.25019155811961   -2.47991781095529   -0.37044926627543
H         4.85183552070079   -1.96623353768463    1.96761860237577
H         5.65984081427665   -3.52480363103782    2.12203412162630
H         3.48512500057008   -4.68746991436266    1.76001655713323
H         3.52053164941684   -3.67355069907879    3.20077897608075
H         2.39564268335908   -1.83571343846007    1.82715760849096
H         2.18084668155796   -3.01288564323617    0.53812369117886
H         0.88384277758697   -4.48213872015014    2.05785865553935
H         1.12129070111047   -3.31609485296806    3.37656092198121
H        -0.72477784342925   -4.20001755968399    0.58155992379737
H        -2.59047334333808   -3.81496832021225   -1.09514077768174
H        -4.28394447491932   -2.23663890767560   -2.03960718456744
H        -4.16550128925224    2.64867919484807   -0.49227243682511
H        -2.70789498122987    2.06344291517485   -1.35244006501544
H        -2.58186609012265    3.39821990893299   -0.18897551108679
Cl        0.70928657879657   -0.00233891311162    0.62119802703006
