62
 energy: -98.993877661678 gnorm: 0.000924685267 xtb: 6.4.1 (afa7bdf)
Ir       -0.72096678992438   -0.85567308871278    1.50497857935507
C        -2.15642393569011    1.66194410937129    3.35895499486218
C        -0.98706846811096    0.79547941208889    3.03212151686143
C        -0.67943312953333   -0.45619204426271    3.68960829443594
C        -1.46955636150610   -1.05238701995832    4.80488444930945
C         0.65121322890783   -0.84023417280357    3.30608462123627
C         1.44435232293035   -1.93921400588020    3.92198422948586
C         1.11141194196053    0.09048002123959    2.32930063731292
C         2.49224515418169    0.19374507196013    1.77621595868724
C         0.10114965416936    1.12507867700768    2.18565244964114
C         0.30494172521550    2.38596706616366    1.41994081658859
H        -1.91543424771411    2.25253284734110    4.24380385145849
H        -3.04081983910113    1.07123626381111    3.58417649140162
H        -2.37655256363290    2.35150825300814    2.54831347397819
H        -2.53596164051260   -0.90890160060234    4.65423680988517
H        -1.26818790526496   -2.11478141152703    4.90562621648380
H        -1.19066803634280   -0.56463415682138    5.73964226005741
H         0.80549417022049   -2.75730672215911    4.24181858217675
H         2.19112143292789   -2.32481915569834    3.23352419619558
H         1.95929562743052   -1.54801329990413    4.80012329435842
H         2.46762636592640    0.50748761374441    0.73530173040733
H         3.01895733839077   -0.75296918124446    1.84949489537159
H         3.04870183416127    0.94356969600986    2.33961552272526
H        -0.61110806219831    2.96435105856168    1.34941853752052
H         0.65730299094298    2.16986296407072    0.41340235096947
H         1.06248216912491    2.98976879155522    1.91987386221449
C         0.70422576347252   -7.36989465875684    2.93941808088848
O         1.85029180109271   -6.77250727424233    2.35894415482513
C         1.73174762534897   -5.56393051614775    1.77859482204506
C         0.56158218292731   -4.81695480274082    1.69089917969126
C         0.56552371412273   -3.56250406187929    1.07700678900120
N        -0.61774578668856   -2.81514439766147    0.99639534982205
C        -1.70650136180238   -3.36359461720074    0.55162295838445
C        -2.86767290402653   -2.53800405259737    0.48326136749027
C        -4.10439318507044   -2.93856121414555   -0.03611349145652
C        -5.14041360718104   -2.03725061903679   -0.08247758178143
C        -4.93136758264433   -0.72462799337829    0.37770003639041
C        -5.98856213837794    0.24981009845395    0.35294314139466
C        -6.02200692610141    1.58322720315520    0.71064069215099
C        -7.33578897032404    2.02500546420740    0.47152448175090
C        -8.01366801086906    0.94101875224563   -0.01224399084080
O        -7.21523496915233   -0.12572665227783   -0.08689990138297
C        -3.66208527196657   -0.40075578252780    0.87233517666065
N        -2.67184443016718   -1.27343069702793    0.94023328680039
C         1.73486591013244   -3.03855732421683    0.53632975775185
C         2.90311057238821   -3.77840642742461    0.59989461245341
C         2.89520493490728   -5.01227284912240    1.21477335639757
F         4.04272843415536   -5.72038786887945    1.28398663557687
H         0.30686744970122   -6.75404056284873    3.74958123031315
H         1.04942436627226   -8.31993196623540    3.34190044474146
H        -0.06829764552442   -7.55212303712265    2.18842298244440
H        -0.35580761730935   -5.18789940076183    2.11801771121443
H        -1.72448225780702   -4.38819873163870    0.19981049261149
H        -4.22537031693041   -3.94655482139224   -0.39872762733867
H        -6.10610021863319   -2.31620059639387   -0.47202972933449
H        -5.21470598123604    2.17307509389383    1.09093172098501
H        -7.72667135286041    3.00760377404792    0.63365196721004
H        -9.03225979225304    0.81796731241311   -0.32449500637245
H        -3.45598509919518    0.59847499206722    1.22132698352923
H         1.70737112309248   -2.08369938317477    0.03767947066387
H         3.82283172647435   -3.41010502605166    0.17472054823426
Cl       -0.37905515491760   -0.35838634196414   -0.80717772590469
