93
 energy: -139.453900840015 gnorm: 0.000349038415 xtb: 6.4.1 (afa7bdf)
Ir       -0.73342538896535   -0.34265162580093    1.37179289087162
C        -1.67407729227369    1.71192535167183    3.99592360966101
C        -0.64196538743982    0.88848955163248    3.30627579704870
C        -0.41390785770310   -0.51080517800089    3.56850770420281
C         0.81325844908529   -0.88132198884594    2.93158469603175
C         1.59528924076206   -2.12173778492724    3.18137977095785
C         1.25987787023991    0.22652879664550    2.15107251029380
C         0.37190241108906    1.34819753056376    2.41915025073362
C         0.67334426296287    2.74601607747816    2.07735518439207
C         0.79054754465551    3.68850240096615    3.09882274578352
C         1.13162397268190    4.99514833021353    2.81199934158149
C         1.36629397910116    5.40258348884695    1.49965065057487
C         1.73797819486427    6.79310799518207    1.19839691423782
C         2.71192887352980    7.07570008043551    0.24237635602653
C         3.06641209008523    8.38269556568817   -0.03718847134836
C         2.44996018643949    9.42994018306012    0.62824088314526
C         1.47896963415572    9.16110111806709    1.57910707971582
C         1.12797540341200    7.85447472537860    1.86461696075795
C         1.24421772387545    4.45726704209613    0.48188997852848
C         0.90575923297589    3.14888451010319    0.76323935018079
C         2.57798535403368    0.29987481846828    1.45914448862441
C        -1.15326367467063   -1.33601309109405    4.56795493307599
H        -1.41001500055718    1.79302588459197    5.05108787964167
H        -2.65570209194352    1.24874618537237    3.93416651156772
H        -1.72112524648223    2.70926683923083    3.57189577255026
H         2.30988308336831   -1.92122900102215    3.98133927270685
H         2.15529379534322   -2.42302241086374    2.30001867536085
H         0.95787518987320   -2.94252921242090    3.49683206205703
H         0.64461376150193    3.38842659781880    4.12500807806568
H         1.24247905158207    5.70458797710133    3.61834811757383
H         3.20971692367901    6.26553734225670   -0.27022884553228
H         3.82786616646962    8.58677427893496   -0.77620156004952
H         2.72553349392512   10.45070502469630    0.40711705189325
H         0.99361604167436    9.97429424684451    2.09932005227240
H         0.36006289291644    7.65640375691475    2.59791130371766
H         1.39875462956372    4.75670629838791   -0.54371656474433
H         0.79186114073891    2.43776353631798   -0.04090958838353
H         2.70015695198025   -0.53141924023557    0.76786223187477
H         2.67453118639801    1.23066860986702    0.90855131038565
H         3.37650479613592    0.24445139452658    2.19952937957864
H        -2.12339584177874   -0.90220329924165    4.79011672095734
H        -1.30512691987613   -2.34756998167132    4.19807833491806
H        -0.57838006091574   -1.39417500619741    5.49253431576959
C        -1.26220881786421   -5.84348341833025    4.35121095568030
O        -0.41803692122106   -5.44638474866154    3.27084268325910
C        -0.92677491636464   -4.64255020074988    2.34021902910671
O        -2.05406535030039   -4.19780283537578    2.38928993233414
C         0.07940843148563   -4.33932028739396    1.28433706157072
C         1.13288457052636   -5.22073672067625    1.09238762943240
C         2.14092742668830   -4.96513524695976    0.15895172579084
O         3.09087570435936   -5.91214516453381    0.04422096247408
C         4.14755368306505   -5.72104346420494   -0.88006780382285
C         2.10101876287272   -3.76963678350879   -0.56140610301196
C         1.06556890249725   -2.87791082666852   -0.36310385211984
C         0.03241841484576   -3.15019168090876    0.52886499094708
N        -1.01056688778035   -2.22178810631485    0.67123716573660
C        -2.21667465139681   -2.56311339007070    0.39081112178756
C        -3.27526526430066   -1.61758670439271    0.61647258093363
C        -4.59808981408841   -2.00856891140489    0.50441926422688
C        -5.58280003878714   -1.08372098752660    0.83852034680469
C        -5.20484182638204    0.18972120853365    1.17202961588668
C        -3.83829515725038    0.57804005454403    1.16422541955385
N        -3.49197045495107    1.86498447016697    1.38979039892603
C        -2.44262425196985    2.51947060264842    0.62929963809677
C        -3.05244365684017    3.25690938198048   -0.56627353288847
C        -4.08114455688791    4.28276215951452   -0.09886376647431
C        -5.13858393917854    3.59531649405276    0.76220016546348
C        -4.44406502102155    2.84025676992746    1.89727326432346
N        -2.88448220417679   -0.36499752355974    0.97040345721571
H        -2.01821093392840   -5.08011127285739    4.54153595152991
H        -1.75400230759531   -6.78418538225150    4.10028686594473
H        -0.61542305894512   -5.97753802553860    5.21469660687840
H         1.18705810949732   -6.13217145615653    1.66399623254139
H         4.76698357020767   -6.61165130258713   -0.79824607340980
H         3.76964051755845   -5.63285686287252   -1.90184333379113
H         4.74125521837682   -4.83949917327628   -0.62540001533767
H         2.86591066551006   -3.52717396616188   -1.28066801288406
H         1.03121877665541   -1.95649970171042   -0.92361890741016
H        -2.45173946789223   -3.53750037306523   -0.02188929153594
H        -4.84053325018251   -3.01101097233778    0.19792057774273
H        -6.62599092712196   -1.35578909479641    0.81022244162478
H        -5.96286607399680    0.92052242490425    1.39037574698419
H        -1.72631776496710    1.78492260573889    0.27197123411567
H        -1.92856603403232    3.23433226803890    1.27472890007317
H        -3.52700826468381    2.53136551432151   -1.23029805219084
H        -2.25158887781471    3.74528117862307   -1.12123693656767
H        -4.54871221510459    4.76451650922806   -0.95878394321007
H        -3.58116134961661    5.05751590372749    0.48598310216191
H        -5.71220993231167    2.90179380468392    0.14478152330121
H        -5.82761977236475    4.33012264167609    1.17971918548745
H        -5.15881617941121    2.36238978855856    2.56541666668261
H        -3.86641969374993    3.55720991680303    2.48802596569560
Cl       -0.37780068619578    0.16329016811782   -0.95295792299371
