73
 energy: -119.064014659861 gnorm: 0.000725083081 xtb: 6.4.1 (afa7bdf)
Ir       -0.56570122844128   -1.16944203646043    1.26069908094334
C        -1.93266693810878    0.77171737078204    3.75116357936034
C        -0.74935882347233    0.11331546157800    3.13181373702025
C        -0.33961781442931   -1.22692778088335    3.48171693174495
C        -1.00104317812397   -2.08343134273817    4.50436620435033
C         0.95759568875607   -1.46295528757260    2.90884963195720
C         1.83951660787884   -2.61609590271724    3.23703177776166
C         1.29537309651864   -0.32617118604304    2.11661692996539
C         2.60574557383544   -0.07754477900704    1.45325534933192
C         0.23138390107159    0.66536139033775    2.26000027039266
C         0.37581056917028    2.08453670976210    1.78175216820061
C        -0.79972442263501    2.61472829788979    0.95287052114529
C        -0.47718723248159    4.01796640354739    0.44576818107294
C        -0.19592773938727    4.95875890270047    1.61505874533082
C         0.95180610001553    4.42523172422475    2.46854170468259
C         0.64012739356269    3.01927342203583    2.97427867866104
H        -2.79568246292609    0.10931968972733    3.75605846557307
H        -2.19838556956910    1.69808237079450    3.25498201361983
H        -1.69052765563018    0.99896680935616    4.79033873392296
H        -0.75171567365791   -3.13054855001624    4.36079976194386
H        -0.65201208089581   -1.78531412757291    5.49384594853718
H        -2.08083568455456   -1.96827559584976    4.48155841872739
H         1.26337163120744   -3.52237828055390    3.40105859429648
H         2.56633419822312   -2.80047930314598    2.45177865626745
H         2.37797872528683   -2.38378346582937    4.15659583738292
H         3.18948089104469   -0.99004306911698    1.38669425550853
H         2.46346167939075    0.32120853566721    0.45103020103785
H         3.16899221526382    0.65361731314263    2.03316928988296
H         1.25503103553625    2.12056861673229    1.13195997011376
H        -1.70972752491093    2.66802915265070    1.55085183405688
H        -0.97523243529244    1.94713532388481    0.10802978277874
H        -1.31502752059460    4.39704109322015   -0.14280538153122
H         0.39618075194967    3.97963559113395   -0.20884829503753
H        -1.09425256180521    5.05459658062057    2.22964899000804
H         0.05328109838086    5.95249690892249    1.23811977972975
H         1.12249504464991    5.08920196560378    3.31819589502741
H         1.86642231115899    4.40721377013670    1.87157535623418
H        -0.23661379624735    3.05611439849865    3.62071180577641
H         1.47867184946220    2.64202721907959    3.56188469113646
C         4.81900065058976   -6.45694842221307    1.91529834366199
S         3.91313117439479   -6.82214813421037    0.39092023985159
O         3.39683449418518   -8.16781196612977    0.46113889719875
O         4.74217382758399   -6.48496420119236   -0.74155789914382
C         2.51920094099308   -5.67776806341884    0.43136415455795
C         2.69043770526668   -4.38765795946425   -0.03935952426638
C         1.62903493104993   -3.50172913866917   -0.00480084199280
C         0.39171038159509   -3.92871003675297    0.48130932615196
N        -0.68605341175245   -3.02965498725932    0.48444258434012
C        -1.80202218911223   -3.36492542990353   -0.08919464136063
C        -2.84897167436678   -2.39158657670099   -0.07728567667761
C        -4.07295021335048   -2.53376962671419   -0.73866137531099
C        -4.98593339832357   -1.50151178488432   -0.69425964089676
C        -4.63942213826582   -0.34433654479210    0.01142184075896
C        -5.60498953659327    0.81090140328646    0.06596886749426
F        -5.73042043067379    1.41467544783946   -1.12772151432102
F        -6.83739867404856    0.41697203260411    0.42340573573935
F        -5.23273702551402    1.75561771277301    0.93845739124098
C        -3.40884230887234   -0.26272100175788    0.64157293121281
N        -2.53453606722145   -1.26226433680721    0.61105204501387
C         0.22688358823037   -5.23470436295036    0.94609057415495
C         1.30201220311040   -6.10588703084489    0.92841553919526
H         5.67384290479736   -7.12140477857682    1.95306433676906
H         4.15727993856865   -6.64308395868988    2.75083978176705
H         5.14329600278151   -5.42552366597626    1.87683439275961
H         3.64671680739320   -4.10278535199038   -0.44788231836143
H         1.72623955703336   -2.49705343528339   -0.38728640771343
H        -1.91937915396952   -4.31455109607951   -0.59748629693334
H        -4.28507450883194   -3.43945711274263   -1.28333106354009
H        -5.94194622703761   -1.57395103370655   -1.18951378780370
H        -3.12156655097631    0.62733101291378    1.18198163666317
H        -0.72844947888788   -5.55253783357462    1.33393745546836
H         1.20822106324654   -7.12317437581672    1.27358790295477
Cl       -0.12129320222899   -0.43536667682090   -0.96495308554740
