64
 energy: -98.107930806985 gnorm: 0.000496885211 xtb: 6.4.1 (afa7bdf)
Ir       -1.12030583942257   -0.97823913112141    1.07650132740240
C        -2.44959834777302    1.07630536998730    3.54341227228075
C        -1.30474925533268    0.31915859939509    2.96310816115233
C        -1.00193670203324   -1.05411254319915    3.29157578567475
C        -1.76614296591128   -1.88091244336178    4.26971486605948
C         0.31400239313253   -1.35099485333511    2.78704763628257
C         1.12366235451328   -2.54738442748563    3.14792921834290
C         0.75005296421848   -0.23067899802915    2.02823766572844
C         2.09562114458331   -0.02403124970121    1.42236728912752
C        -0.25433359232559    0.81482717934605    2.14893392877161
C        -0.03870729260980    2.21667010641093    1.68520763193959
H        -2.26605905578144    1.21589259874869    4.60919088473031
H        -3.38258753416783    0.52866979004342    3.43554198012726
H        -2.56305550145153    2.05241795820382    3.08359671585102
H        -2.83285291436167   -1.68797329227975    4.19440791550408
H        -1.58620395932058   -2.94100706048335    4.11457089909375
H        -1.44668440902962   -1.62831893735972    5.28153041122144
H         0.49953818542048   -3.42411669105986    3.29725692709214
H         1.86625052618616   -2.77129660449698    2.38749085619474
H         1.64632406593789   -2.34043429809663    4.08281376240241
H         2.00674837390996    0.46069174264272    0.45275678868746
H         2.62223399223361   -0.96553700842105    1.29940913701868
H         2.68772421558983    0.62307447837565    2.06979221204648
H        -0.90555854148206    2.84187730837627    1.87832156975448
H         0.18357953550184    2.24018494442809    0.61944758376013
H         0.81682227810470    2.63925442229330    2.21203480880714
C        -8.53867977091582    4.42600496144828   -0.39719111552215
C        -7.94898421241657    3.02468775059122   -0.39071622995534
O        -6.56798594558009    3.13695614969473   -0.06414548429990
C        -5.80707674998833    2.04016034724023    0.00618610056758
C        -4.44117291020726    2.27442132771230    0.31888605269013
C        -3.56139123625697    1.24521845045549    0.45247913156650
C        -3.97595391846609   -0.09175979799035    0.26768658023155
N        -3.09877114642493   -1.10843352884929    0.40893143202776
C        -3.47474349380758   -2.35217810588347    0.06089491514186
C        -2.41579361732327   -3.30902429986279    0.06144242784469
N        -1.23926748592519   -2.88468195948223    0.40537553066485
C        -0.13446811525526   -3.74359463723758    0.35746555076646
C         1.05491487733113   -3.28178660656185   -0.20807502446206
C         2.15549733309336   -4.11255433273868   -0.28440974815639
C         2.06061789025426   -5.39645370473595    0.22792586605487
F         3.13699249314898   -6.20700883530729    0.16667102681595
C         0.89668405463450   -5.87089841500435    0.80951997813881
C        -0.20702818788590   -5.04153042808112    0.86667826132248
C        -4.79362223067941   -2.65823391844261   -0.33224336233641
C        -5.72415143363625   -1.66148160532609   -0.38144141585815
C        -5.33294357973723   -0.33065619554990   -0.10751137205438
C        -6.23006220112274    0.74320666002919   -0.21155412903416
H        -8.42502785780646    4.88484814596245    0.58092307397319
H        -8.02914989409214    5.04290988151609   -1.13230399151411
H        -9.59452666587061    4.37668321633361   -0.64583145771742
H        -8.05712466321227    2.56060050569867   -1.37882280165125
H        -8.45405368957094    2.40090548693950    0.35718252867857
H        -4.12965655634499    3.29990596037691    0.43576668522534
H        -2.51789588212523    1.43288536968629    0.64481351940978
H        -2.57783835695916   -4.32148681543597   -0.28969379703663
H         1.08967124299973   -2.28159017555009   -0.61147227016526
H         3.07799869736125   -3.78098422178045   -0.73293430949237
H         0.86576330320874   -6.87334321541713    1.20495280086027
H        -1.11690365644721   -5.39091137412117    1.32961791593704
H        -5.04098723252081   -3.67712670181102   -0.58082556892749
H        -6.74796450836007   -1.86662005572467   -0.65306801314989
H        -7.24939406649294    0.52361897268194   -0.48469707036001
Cl       -0.58960174492829   -0.21253821528166   -1.12650745128139
