57
 energy: -91.847659365999 gnorm: 0.000845304921 xtb: 6.4.1 (afa7bdf)
Ir       -0.25442522055548   -0.93946687352997    1.73357710176245
C        -2.24602977729694    1.33675062244581    3.52783588255164
C        -1.00617658097161    0.54178596915992    3.32715636500679
C        -0.80646687358948   -0.76888320009254    3.90314292615664
C        -1.82194909114028   -1.50179508079535    4.71213599816246
C         0.59435594889907   -1.06268126912805    3.86305640918027
C         1.26459892772477   -2.08997082758842    4.69945495233512
C         1.23370697946681   -0.03043000060173    3.09591633658150
C         2.70085995469291    0.17877894797191    2.94806409760599
C         0.23330027743725    0.98142712196882    2.79189014951630
C         0.55133197943961    2.32292488920040    2.23148584621933
H        -2.34696721090793    1.52832219920089    4.59710688824320
H        -3.13501226281850    0.79768903191091    3.20845836505441
H        -2.20326455228640    2.28906247079470    3.01098419259686
H        -2.82610883107430   -1.32531149519608    4.33720606800557
H        -1.62781211101432   -2.57088900331000    4.71582678375356
H        -1.77943284842048   -1.14791353716981    5.74314567692361
H         0.65666753914364   -2.98435140393106    4.80794533179574
H         2.25194351752313   -2.34243467465079    4.32439096960602
H         1.39471114619191   -1.66046726387649    5.69501166844090
H         2.93930346498060    0.57092250240928    1.96195505011190
H         3.25427584402382   -0.74093954483636    3.11576830283050
H         3.02639018195904    0.91275956675673    3.68607043052348
H        -0.34569008211709    2.84977196787806    1.92103689738454
H         1.21348425710115    2.23199723108328    1.37363901366378
H         1.06223654662781    2.91399819399431    2.99216481915107
C         6.54388348168613   -3.86168194855085    2.84168526084522
O         5.39352354528527   -4.19519207767071    2.06056599864779
C         4.23218348737519   -3.63490462745104    2.36322529179787
O         4.05856179769737   -2.85790536061551    3.27454009020840
C         3.15219003029457   -4.07485568609501    1.40980321066953
C         1.77364703322655   -4.43497905771331    1.99894451750953
C         1.11766776464779   -3.67851160195890    0.82425442216388
N        -0.07043808618796   -2.89287580161303    1.02945471209689
C        -1.16953791797349   -3.39911660757873    0.57697934886809
C        -2.31625698608326   -2.55774213818219    0.41714280615472
N        -2.08958522107952   -1.24248515611995    0.64526579690182
C        -2.98458100693423   -0.36452017858469    0.20196637914984
Br       -2.52594906874202    1.45634844231919    0.22125618626468
C        -4.21163528430151   -0.73222809451884   -0.33826679028649
C        -4.51219016387525   -2.07882273834843   -0.47638803185819
C        -3.53176899822800   -2.98985308768444   -0.12664742895467
F        -3.72108268570742   -4.29770179696011   -0.31917384889586
C         2.45138649295387   -2.94580604102689    0.62340859540760
H         6.24154853030680   -3.32863245673790    3.74375986769124
H         7.20113833907148   -3.23527124486956    2.23879816855743
H         7.04526633731335   -4.79364720898808    3.09475297484878
H         3.55082844121333   -4.85012908674376    0.75741046604741
H         1.53613245045099   -5.49185470995727    2.07928321863142
H         1.60963167720723   -3.93434604893353    2.94615452240507
H         0.94254822662362   -4.37460832616737   -0.00207864564706
H        -1.21865330243403   -4.41046833004513    0.18320286580102
H        -4.90787324354370    0.02888565369686   -0.65291015891414
H        -5.45429884470626   -2.41332497279613   -0.88068156461931
H         2.76327355580327   -2.78394383410388   -0.40341599741370
H         2.47347122932989   -2.00457782154818    1.16694326023020
Cl        0.66442526638869   -0.27019759455501   -0.36478401744797
