60
 energy: -86.940978595774 gnorm: 0.000406912951 xtb: 6.4.1 (afa7bdf)
Ir       -0.37213141226085   -1.12042822989555    0.62662118140910
C        -2.22858000028906    0.79916310036750    2.80957396830301
C        -0.97563948855138    0.06671898586456    2.47438774187629
C        -0.71146977697863   -1.30998798392781    2.82915496958951
C        -1.63570917949556   -2.18533892669041    3.60417778543409
C         0.68195550866947   -1.56721852042961    2.59101542257627
C         1.43784240378989   -2.75042017193969    3.08777353853699
C         1.23990763539505   -0.40968236956331    1.96847786440264
C         2.68190218617715   -0.15037466038183    1.69214543325360
C         0.20860577065387    0.61569193186108    1.92602800261336
C         0.46410819505136    2.03641944913594    1.55924555247419
H        -2.18123616945439    1.10316210481964    3.85640669471789
H        -3.10649294017455    0.16890017975135    2.68922565954031
H        -2.34152567586993    1.69854824822294    2.20973749805405
H        -2.67124890440509   -2.00937041647721    3.32693809871082
H        -1.40573183542948   -3.23608437447573    3.45324803025440
H        -1.52911227050191   -1.96393628912883    4.66682746089555
H         0.81686116526433   -3.64176966580020    3.11426438869691
H         2.32680192995456   -2.93833422270123    2.49215744619784
H         1.76044780653024   -2.54265326732822    4.10919880315377
H         2.80227062082394    0.40332846914409    0.76388426708915
H         3.25048381025909   -1.07320351423923    1.62771396351975
H         3.09596198906478    0.45506598552222    2.49910644412918
H        -0.46048378945028    2.59113617566708    1.42929072360300
H         1.03852529205748    2.09749119096028    0.63738148812494
H         1.04583696917708    2.51107118029569    2.34985844898805
Br       -5.42324680833927    1.11663207695610   -1.36563646833528
C        -4.12409899767168   -0.27626527425153   -1.39379771338226
C        -4.21836521133258   -1.32165057383728   -2.31169984707947
C        -3.24515707762286   -2.29814835455504   -2.28181115816317
C        -2.21623780898572   -2.21292200672207   -1.34050654494467
C        -1.13005368838882   -3.14085292571531   -1.23504772478714
N        -0.20869555796444   -2.88865678962495   -0.36671299346489
C         0.91390521845608   -3.78630647762496   -0.25994014647474
C         2.18177935124073   -3.17014500850062   -0.86965648900257
C         2.11850069826117   -3.11011424635105   -2.39889158889716
C         3.41379328369417   -2.57309849730735   -2.94316981285800
C         4.41623494782109   -3.42982851116869   -3.37832436907170
C         5.61685306283984   -2.92716661047975   -3.85018295436414
C         5.82991799112109   -1.55947664458037   -3.88792558700781
C         4.83653552787210   -0.69741404960570   -3.45264463734439
C         3.63781336744675   -1.20228402083954   -2.98163353402158
N        -2.15299028158457   -1.19609339544052   -0.44481544218680
C        -3.08020004033821   -0.24821454084784   -0.48053080202197
H        -5.02651300938405   -1.35699111492282   -3.02470579037044
H        -3.26300297936483   -3.11829045535891   -2.98143447653541
H        -1.09333762806091   -4.01677235773335   -1.87334511513931
H         0.68945413469032   -4.72898949015248   -0.76823349844863
H         1.09007953636587   -3.98628430166989    0.79732174006724
H         2.31647286832871   -2.15899399397935   -0.48416009754933
H         3.03715288469364   -3.77519665399691   -0.56756804135233
H         1.93783941335409   -4.10817036299172   -2.80209458956480
H         1.30206450796097   -2.45130046819518   -2.69877579381771
H         4.25730083259903   -4.49876269531417   -3.35624310731231
H         6.38812098973179   -3.60298385949911   -4.19111024160355
H         6.76601868435368   -1.16665442801931   -4.25795486772019
H         4.99894034105068    0.37049069899205   -3.48355386708009
H         2.86194813862141   -0.53019186619496   -2.64586587573567
H        -2.99944344312452    0.55956971716714    0.23056722593820
Cl        0.39665191163617   -0.01980590627123   -1.34160666651365
