84
 energy: -134.831995786899 gnorm: 0.000988115540 xtb: 6.4.1 (afa7bdf)
Ir       -0.45952631760806   -0.79192546466195    1.69429257841094
C        -2.06930367928848    1.00712423132227    4.07351892984921
C        -0.80195291078115    0.38775694853970    3.59345544795072
C        -0.37147693833845   -0.94205873640377    3.91742490857245
C         0.97602497716884   -1.10304102712815    3.42435403476615
C         1.93838736564438   -2.18257370184589    3.78508679161654
C         1.34269280534960    0.09283191666181    2.74271017315553
C         0.23891647769084    1.02487046497281    2.83882324761062
C         0.34093284564131    2.45162404180925    2.50507643740636
C         0.02729450811685    3.41692919195695    3.46152618625531
C         0.16922677803742    4.75919764059848    3.17339601330845
C         0.62725568615721    5.18193069085063    1.92631533897099
C         0.78772686097306    6.61368300751888    1.63292533398028
C         1.89325449557955    7.07188718356748    0.91868438619201
C         2.05458357844314    8.42058048791291    0.65985947554968
C         1.11155241847830    9.33346252572282    1.10338685616910
C         0.00492752614916    8.88858065702619    1.80805790456069
C        -0.15483532302783    7.54095774347123    2.07347600399717
C         0.93931613513057    4.21319190153361    0.97297761055009
C         0.80299362684840    2.86930579764328    1.25587665254882
C         2.69779394863866    0.39900376013158    2.20953021895784
C        -1.08664045840029   -1.85953092282769    4.85125762147835
H        -1.96804177765571    1.24721811921143    5.13256301519358
H        -2.90532947951673    0.31870710375589    3.97261659117923
H        -2.29373850959609    1.91852041314934    3.52707106720549
H         2.73432948421643   -1.74859884351147    4.39156552556913
H         2.39455429846313   -2.61880716242285    2.89921179261548
H         1.46006573823200   -2.96461628193584    4.36429421789336
H        -0.29429102985686    3.11493057772367    4.44532370232910
H        -0.05277106439174    5.49151010974935    3.93475467221178
H         2.64318929120489    6.36974062676195    0.58490421918249
H         2.92123627128384    8.76300587531057    0.11294808313897
H         1.23923096475427   10.38682214514895    0.90120043450050
H        -0.73603793832993    9.59595158304302    2.15183931118020
H        -1.02845220512603    7.20217877873444    2.61118957390718
H         1.27793356404002    4.51716469724562   -0.00584094177141
H         1.02682835725226    2.13412566274756    0.49716959548933
H         2.81041925843113    0.01358315967934    1.19638151442168
H         2.85601787861137    1.47442073397458    2.17791881940814
H         3.46044643271013   -0.06551839550233    2.83216741986599
H        -2.16309922822433   -1.79036355991885    4.71885869595277
H        -0.78222003326835   -2.89165558695634    4.70720185780953
H        -0.85483704427184   -1.57530694850316    5.87863036792002
C         0.83591284117618   -2.19449778849272   -3.66430195501304
O         1.21034408526748   -2.87622161016723   -2.47071377697896
C         0.24156642257953   -3.15298025766624   -1.61064630753204
O        -0.93403420228469   -2.92694198842424   -1.81397178200660
C         0.75757773341270   -3.86651441065858   -0.40574212186420
C         1.80183322011114   -4.76220926152910   -0.54567468297354
C         2.26151700402993   -5.51788795457366    0.53892863904453
O         3.26707755065795   -6.37334300151254    0.27676728578775
C         3.76507746677979   -7.19273165846364    1.32033678839057
C         1.65255489631343   -5.34865083230370    1.78321696972901
C         0.63995886953757   -4.42057947581823    1.93713045056484
C         0.18265877383849   -3.66960550229092    0.86303593087899
N        -0.82520895263682   -2.70375763846858    1.03038863911210
C        -1.98728026105218   -2.92011249300054    0.51274419151395
C        -2.90457406311342   -1.82087070799702    0.45745354196145
C        -4.22812191717591   -1.96274417426401   -0.00356407374699
C        -5.02610965549980   -0.85846594472805   -0.08867777442642
C        -4.47771546852652    0.40997516266554    0.20731808662478
C        -5.22443104847462    1.59409521607965    0.06746753435325
C        -4.63750706048092    2.81238825215492    0.29853417647308
Cl       -5.55105684136424    4.26972195971567    0.12330476842412
C        -3.27960942459187    2.89520046558255    0.65290953011978
C        -2.54439215952775    1.75488371129059    0.82059830799372
C        -3.11810055197004    0.48231819208187    0.63412047811451
N        -2.38332656319206   -0.64146414761705    0.82585118101315
H         1.72242570909245   -2.17759443093976   -4.29179629282835
H         0.01487801408797   -2.71749144257042   -4.15803903263115
H         0.51755678996743   -1.17890363704724   -3.42060966250774
H         2.26379054030065   -4.90605607714452   -1.50828213531896
H         4.17845882506104   -6.59159490451892    2.13368495133425
H         4.55813026907102   -7.78524286270759    0.86936020881991
H         2.98781509132829   -7.85824916590260    1.70407447437019
H         1.95949508244439   -5.93244866103751    2.63507203279427
H         0.16382910538795   -4.30036040100533    2.89592559522551
H        -2.25887188532246   -3.88268722014378    0.09762937168294
H        -4.58404294148871   -2.94410482648839   -0.27060361492084
H        -6.05516385295519   -0.93117431028401   -0.40379001343901
H        -6.25604265156676    1.53001730414053   -0.23945271994451
H        -2.82102369065309    3.86167178401713    0.78544919121540
H        -1.49419146938749    1.82109356818909    1.04913564748593
Cl        0.48845173519165   -0.41660997399407   -0.44604471394814
