74
 energy: -124.273877021125 gnorm: 0.000474716098 xtb: 6.4.1 (afa7bdf)
Ir        1.37641925920613   -1.73552070338108    1.80093898492690
C        -1.22093229181127   -0.29482290382807    3.44767817283528
C         0.21242132536254   -0.69141405511008    3.40967142724345
C         0.76330243152901   -1.87731837405019    3.96306086691212
C         0.00541452177697   -2.91627842751462    4.71427112781508
C         2.20198074330106   -1.80100363736343    3.84165794353711
C         3.17892356067034   -2.75093760555062    4.42511200420252
C         2.54262608342344   -0.53481554053950    3.23716953705599
C         3.91387557130056    0.02455837902173    3.11924223348275
C         1.31377704593828    0.13826078943085    2.93866961275371
C         1.19624189757987    1.51487220823176    2.43682266681017
C         0.54853718704405    2.47180788773180    3.21664895985917
C         0.48832190695205    3.77680125274209    2.76273259514270
F        -0.11183003254850    4.69701993497435    3.53580242399119
C         1.03030766103002    4.16891073319790    1.55197600995947
C         1.65017688140750    3.19165554687565    0.79399342318688
F         2.17699695960305    3.53234390699325   -0.39797377432778
C         1.75590112190453    1.87827919260367    1.21334234210230
H        -1.41415402345961    0.54785670295405    2.78987096067804
H        -1.48161562932380   -0.00658035353194    4.46684594801433
H        -1.87164129810399   -1.12050335381861    3.16892375434876
H         0.51808755257089   -3.87308397996142    4.70162712610106
H        -0.08423944335096   -2.59868916027017    5.75361928567691
H        -0.99739052643455   -3.04121885189072    4.31639191334755
H         3.38925814348498   -2.44373135509566    5.45145774644903
H         2.78569494669716   -3.76301856131681    4.45515229399142
H         4.11430121123229   -2.73685381100828    3.87289510096380
H         4.55220937574310   -0.62476418363848    2.52374422554161
H         3.88894481719597    1.00612805421188    2.65547294947830
H         4.35312342490003    0.10937186769148    4.11277724937268
H         0.12388460899735    2.22162546203772    4.17491275247498
H         0.95823732298724    5.18657582954940    1.20917022839234
H         2.24607388295805    1.14944188295810    0.58553317112808
C        -3.91730407967761    5.96678085459023    0.34105491433286
O        -3.92512501897626    4.62784406682579   -0.15533293999093
C        -2.89668603512410    3.84657028860976    0.14056886614106
O        -1.94161772363902    4.18287425966365    0.80540654646216
C        -3.04228462532152    2.47386377577518   -0.42874114444146
C        -4.11648436949535    2.09473622437890   -1.22790017205643
C        -4.14524205808828    0.78498734893396   -1.70181346612939
N        -3.21838425788871   -0.10742474348993   -1.43119930776128
C        -2.18588218569583    0.24775539851667   -0.66746288601669
C        -1.16950448502423   -0.74815881701041   -0.37680801653508
N        -1.12432984281700   -1.88974837970556   -0.90914763163737
C        -0.20840487857735   -2.83214043394907   -0.55838388562582
C        -0.04349636252846   -3.18607941218935    0.82904965467123
C         0.93551576289624   -4.13511933815441    1.18082843832856
C         1.76291169515652   -4.73200368749938    0.19438581561052
C         2.74998253962412   -5.67334653202293    0.53446969179555
C         3.50185484447504   -6.28691702907703   -0.44652640903263
O         4.46410290913616   -7.20175143552175   -0.23798023703395
C         4.75444945603479   -7.61314705259628    1.08601861133055
C         3.27238973632628   -5.95924697632582   -1.80894374187128
C         2.31857738629170   -5.05521885469495   -2.15979131865876
C         1.53188510430148   -4.40889314997001   -1.17595175062722
C         0.53974996658773   -3.48294468323451   -1.52313206607055
C        -2.05695271710768    1.53475020182190   -0.14221118844087
H        -3.33845113411878    6.02184327715896    1.26408847252123
H        -3.47577401641228    6.62630889856584   -0.40722044437448
H        -4.95569655232962    6.23734350992930    0.51575479401764
H        -4.89772924706522    2.79543469236931   -1.47008313949880
H        -4.95667852468382    0.43881324293572   -2.32665723270803
H        -0.37859145393973   -0.43045305036591    0.33987015815307
H        -0.90520748701708   -3.03520347883501    1.47680407687879
H         0.91446150449759   -4.59221308500503    2.16348849739150
H         2.90372293564829   -5.89862470593980    1.57727891149891
H         3.87709525306944   -8.05965827536469    1.56050185979224
H         5.53754250463561   -8.36232020788868    0.99156706328646
H         5.12055560622150   -6.77675015348516    1.68591084887607
H         3.88071137950616   -6.45406861750633   -2.54908324258464
H         2.15308421420500   -4.81080141214663   -3.19761878530362
H         0.37418534792378   -3.24288313332774   -2.56167483210084
H        -1.21261028984160    1.82277016624575    0.46700192008756
Cl        2.67161399880692   -1.48447433459212   -0.05634156610663
