58
 energy: -101.175312103024 gnorm: 0.000763785268 xtb: 6.4.1 (afa7bdf)
Ir       -0.74444365312873   -1.15197326303735    1.17097120111150
C        -1.73025104272194    1.37212313655481    3.28636428990277
C        -0.68091399551004    0.44052954500538    2.78800739475758
C        -0.40007472458848   -0.86051212221647    3.35724064556358
C        -1.09705211005812   -1.44364110725985    4.53701127573515
C         0.83261205001417   -1.33446799298581    2.79007543869558
C         1.61034583699607   -2.50872497018669    3.26842447575783
C         1.24626501065463   -0.39644993014924    1.79453278404185
C         2.54668295599457   -0.37809622785958    1.06930818995741
C         0.31299032001801    0.72124400679483    1.81654330779298
C         0.52632789770983    1.99758849754318    1.08104673935782
H        -1.34364715623067    1.88843759682390    4.16617120079046
H        -2.63113221370794    0.84113854131876    3.58345969208275
H        -1.98346108757100    2.12656080811451    2.54618122808080
H        -2.16258379186691   -1.23286875171780    4.51137169384740
H        -0.94952970264158   -2.51819860711481    4.59085576260239
H        -0.68916501724237   -0.99899924870062    5.44566208104234
H         0.95850949314221   -3.29474699527190    3.63791772208135
H         2.23844975998609   -2.91295389291175    2.48028244335383
H         2.25392165550477   -2.18649334150050    4.08763423125537
H         2.41110719966243   -0.04002648065544    0.04465333531203
H         3.01343802656738   -1.35789039738748    1.06083140501297
H         3.21884639433710    0.32214849350620    1.56607442457267
H        -0.34235324467110    2.64589128023166    1.14146799695657
H         0.74510079183463    1.80346924509111    0.03320714580281
H         1.38089964000199    2.51949201816050    1.51160469973633
C         4.62948404531131   -4.97746872428463   -0.48383482317739
O         3.50702406294043   -4.11275814570198   -0.42362104693777
C         2.35126246966868   -4.56889642732036    0.08537766744451
C         2.15717255113349   -5.85030380195262    0.60328069000778
C         0.91267626606714   -6.17696128696895    1.11318552612322
F         0.73372582638366   -7.41389816397123    1.61785641196956
C        -0.15334108307322   -5.30014380249750    1.13235348653950
C         0.05398104717175   -4.01895858440302    0.61479989983282
N        -0.98561979352958   -3.07753099315013    0.60576619042841
C        -2.16088335067805   -3.42595086962723    0.17412138116391
C        -3.17532199007113   -2.41986143877650    0.17507169174915
C        -4.45387037517931   -2.58284341830884   -0.36911563492461
C        -5.33236444994705   -1.52020879975211   -0.35979990905866
C        -4.89735245314231   -0.31303133544592    0.19567455196982
C        -5.79214742737534    0.89808021763861    0.21526105425976
F        -7.09095888972176    0.57958927639016    0.22668801030376
F        -5.57006817451423    1.67200043647868    1.28920677317416
F        -5.59742411986282    1.68374360597033   -0.85978601983055
C        -3.61566957018607   -0.21426388014549    0.71380617982228
N        -2.77472418212006   -1.24084979312688    0.71922893833817
C         1.29026535372210   -3.65701048342995    0.10075265408813
H         5.42533169400562   -4.38481409496321   -0.92890434122859
H         4.93059051162717   -5.30328917840138    0.51464299869536
H         4.42718150283269   -5.84663317970432   -1.11363021194106
H         2.93730551987241   -6.59242988157317    0.61945928967777
H        -1.09528501579649   -5.59771277154946    1.56247559317331
H        -2.35461591992211   -4.41707356587251   -0.21816153217489
H        -4.73503761275783   -3.53058854282375   -0.79847522004041
H        -6.32756673413262   -1.60990397846402   -0.76702731532133
H        -3.26596697793239    0.71507532611800    1.13900953196210
H         1.43043479846626   -2.68118263533097   -0.33569364736801
Cl       -0.52761482175614   -0.59709192525751   -1.13545562392453
