68
 energy: -100.155937161943 gnorm: 0.000904038028 xtb: 6.4.1 (afa7bdf)
Ir       -0.45834163429034   -1.07259869561047    1.21382626094103
C        -1.62846807806647    0.98303725331010    3.69517497307261
C        -0.49954316884896    0.25189065619606    3.05093036956119
C        -0.13689827762821   -1.09317309073335    3.41849569075879
C        -0.79153760211552   -1.89622421255400    4.49023603906319
C         1.13447622313065   -1.39527375540789    2.81406537810374
C         1.97983644297762   -2.57231101387250    3.15674881930073
C         1.49373633904908   -0.29918934446915    1.98836396056822
C         2.78617117554423   -0.12664486802649    1.26582242959571
C         0.47187920561317    0.73400692536359    2.12415778352943
C         0.66600658101480    2.13362422386539    1.60422383050521
C        -0.50518376554486    2.68722559279945    0.78573958901461
C        -0.14236776036861    4.06177989538339    0.23045530257402
C         0.20135117441229    5.02302452950235    1.36585950897549
C         1.34864679200636    4.46993070652201    2.20751369545340
C         0.99834757486113    3.09093016832445    2.76042610787144
H        -2.52952381143743    0.37364931861556    3.72091882540397
H        -1.84732200747637    1.92050500983198    3.19734702277672
H        -1.35000479039132    1.20120530272067    4.72696711056789
H        -0.61796395009177   -2.95875029175897    4.34437456104629
H        -0.36870606478555   -1.61546659602343    5.45570427136671
H        -1.86165293019706   -1.71362326502842    4.52478734013927
H         1.37700387442244   -3.46227324850099    3.31623633841055
H         2.70877931125576   -2.77960775930853    2.37951082968562
H         2.51666701991045   -2.35598097650655    4.08129032004352
H         3.32686231092895   -1.06598835689061    1.19997999582928
H         2.61970937535848    0.24733144208507    0.25746383615585
H         3.40712670674672    0.59335770760586    1.79925230767816
H         1.53071057532924    2.11299501516152    0.93447674392408
H        -1.39524343570642    2.79336726691561    1.40623297160730
H        -0.72565204226297    2.00115257356999   -0.03360358478711
H        -0.97842577171277    4.45612089222559   -0.35055181641487
H         0.71359193230982    3.97099556891725   -0.44181733640280
H        -0.67694646322521    5.16852653466888    1.99935534053143
H         0.47831109210429    5.99660505415440    0.95660795980798
H         1.56559285773112    5.15052768777286    3.03341564743327
H         2.24735550924631    4.39990666215360    1.59025202660750
H         0.14351515744229    3.17865057036088    3.43107873754883
H         1.83853921886107    2.69782777613137    3.33590958432775
C         4.74638017461189   -5.20691992633175   -0.37349335050039
O         3.69779493963849   -4.25815240422201   -0.28861688512847
C         2.48722045834317   -4.65444752158545    0.14220553327835
C         2.18272144267887   -5.94048090277485    0.58836782245862
C         0.89254513304083   -6.20446143799250    1.01246782862596
F         0.60718728958974   -7.44882190639768    1.45039874172497
C        -0.11421255845946   -5.26092021965717    1.01175312259111
C         0.20507796888702   -3.97463001863081    0.57014190543456
N        -0.77369554202871   -2.97046105947721    0.54607719382869
C        -1.93122202099582   -3.21716733386563    0.01964932863803
C        -2.88106164588093   -2.14535836216405    0.01941375442695
C        -4.14256301101934   -2.20850507002255   -0.57496786045242
C        -4.95516572073696   -1.09112757494007   -0.54562349035916
C        -4.48327833805959    0.05968288447113    0.07727255329471
C        -3.22180270056699    0.05255252122801    0.64568566262484
N        -2.43286100511750   -1.01860843069551    0.62836543219746
C         1.49019078162687   -3.67394102789906    0.14686860139063
H         5.59641692608576   -4.66348935982042   -0.78184641965490
H         4.48412917347206   -6.02839096257067   -1.04458735219708
H         5.00466355646163   -5.60150789363813    0.61247234814428
H         2.91115782292527   -6.73301882015359    0.61578354734145
H        -1.09842720902197   -5.51424484034461    1.36820059980018
H        -2.16037988596494   -4.17071981058884   -0.44167361422067
H        -4.45826709554926   -3.12111377435458   -1.05444811111297
H        -5.93254845301404   -1.10962376925820   -1.00103115652765
H        -5.08341959011662    0.95348970669095    0.12356805373332
H        -2.83020535984420    0.93477594586373    1.12723332489199
H         1.72021053140759   -2.68815576524366   -0.22411169215177
Cl       -0.00954595847345   -0.51845972505554   -1.06556919431451
