64
 energy: -125.737790659328 gnorm: 0.000508367974 xtb: 6.4.1 (afa7bdf)
Ir       -0.28205676485790   -1.22108416934900    1.27616819179056
C        -1.82110629865158   -0.17026161961859    4.05947854127764
C        -0.54572840012353   -0.36109850881482    3.31762155810011
C         0.31661820177440   -1.49565497510351    3.42631665750221
C         0.11828560682020   -2.66038572405186    4.32900162346826
C         1.49071644053003   -1.24138001638737    2.62925265652646
C         2.73947435053340   -2.05459521739601    2.63605552311759
C         1.38732717337356    0.08781327048601    2.09131151771873
C         2.47383040418040    0.81477877127265    1.39060487410744
C         0.10469397830768    0.61023760035736    2.46206257127573
C        -0.34734885442153    1.98495507026479    2.20236763639601
C        -0.78455148705982    2.79309643796777    3.24974074829523
C        -1.18616871292914    4.08723237661333    2.97446586663959
F        -1.60377457704068    4.86168368924596    3.99330587788383
C        -1.17832290107101    4.61685930573219    1.69603391094523
C        -0.73478302943217    3.79136640165412    0.67787083589499
F        -0.71427232165461    4.26770214725047   -0.58119202545945
C        -0.31888667648730    2.49257984435160    0.90271935801359
H        -2.42239821441572    0.61831880743072    3.61561621141866
H        -1.59640242235633    0.10365626596101    5.09107227110974
H        -2.40109111478875   -1.08958074193242    4.08630656823309
H         0.56185999425378   -3.56180806514154    3.91445866571628
H         0.61127658525934   -2.45155201783334    5.27920906047593
H        -0.93501474245597   -2.83340378719561    4.52704325131892
H         3.37971774468759   -1.70752094981155    3.44780239632008
H         2.52683275463270   -3.10664821161148    2.79966503704485
H         3.28235288496089   -1.94003110520026    1.70289202684391
H         2.59080354365059    0.45039701316495    0.36992125437102
H         2.25983817670928    1.87941009418885    1.34933956657965
H         3.41534732175751    0.65122142568854    1.91143024619231
H        -0.78806118492989    2.44268920968579    4.26817277771406
H        -1.50041711071307    5.62617463373537    1.50234085860014
H         0.00740314853711    1.88402983610202    0.07332692269684
F         3.62019858521871   -7.24054664932623    2.58886683816600
C         2.91531375616823   -7.40429006780489    1.44812847115703
F         3.82078627160189   -7.51762971587967    0.46468625297259
F         2.31019992979637   -8.59778163896715    1.55437355703151
C         1.94638641764942   -6.27477324610132    1.22614928145951
C         2.35666313708508   -5.14299075721908    0.52863283356258
C         1.47940126357058   -4.08904669112023    0.35794760100053
C         0.18598167361345   -4.17399692221591    0.87108936610460
N        -0.70119038618486   -3.10004244575924    0.67802379561206
C        -1.83506839817496   -3.30088311154973    0.07843039230422
C        -2.68351418383802   -2.16018980413991   -0.09723404314387
C        -3.88620032678782   -2.16152924832350   -0.80982201233573
C        -4.58937760683697   -0.98130337230623   -0.94308050337405
C        -4.06065237929721    0.17323893725999   -0.35755616737855
C        -4.78990797441811    1.48526010844299   -0.49442856199118
F        -4.23971321198398    2.45959820303358    0.24222523240759
F        -6.07203443886386    1.38654887161275   -0.11078769049015
F        -4.80448484030849    1.91717731711559   -1.76466593093186
C        -2.86390005403978    0.10795487295775    0.33714684270554
N        -2.19403518431740   -1.02913204838275    0.47279201323033
C        -0.22267131937159   -5.31158433720495    1.56656560301769
C         0.66194131032832   -6.35805394124674    1.75215510616365
H         3.35379635522447   -5.09192987764394    0.12052879218254
H         1.77258725843365   -3.21054365297745   -0.19524852917528
H        -2.11060707323523   -4.27484293070351   -0.30883643869037
H        -4.24771968889318   -3.07529838873484   -1.25396490262404
H        -5.52149960899787   -0.94026134480110   -1.48570550047619
H        -2.43752150416945    0.99325631253727    0.78866279226742
H        -1.21846249160579   -5.36549664441177    1.97691313255028
H         0.35521739370293   -7.23917907665925    2.29383873470787
Cl        0.43919582235553   -0.77937680112766   -0.93757239620191
