64
 energy: -109.769530080106 gnorm: 0.000396142752 xtb: 6.4.1 (afa7bdf)
Ir       -0.24588138165390   -0.84470412692522    1.50790715592050
C        -1.90580076642676    0.19273292559202    4.23881653514926
C        -0.60003736148619   -0.02227509544918    3.55925483852353
C         0.21257116815825   -1.19072481746494    3.68873132251845
C        -0.08820327692291   -2.34805843372089    4.57571184623440
C         1.43584949435162   -0.96329716695435    2.96029457226627
C         2.66214674218152   -1.81258901746912    3.00800882884897
C         1.40900715929888    0.38585996391320    2.45673945498442
C         2.55901763404737    1.08835303556532    1.83504977613420
C         0.13215766522456    0.94636300238742    2.77322113716744
C        -0.26179733074177    2.33906745634332    2.51986224542685
C        -0.74034874581068    3.13737534722457    3.55683119220986
C        -1.09466580114091    4.44601854901069    3.28682938258139
F        -1.55463950331517    5.20996212842279    4.29657507461050
C        -0.99923492748400    5.00157239648909    2.02316598144732
C        -0.51469214204466    4.18614050103207    1.01577075331718
F        -0.40875585300725    4.68764358733837   -0.23033613651428
C        -0.14326626623596    2.87367508440347    1.23618571319454
H        -2.46176562247551    1.00712505106210    3.78220339578408
H        -1.72763542342739    0.44041060249382    5.28610920300890
H        -2.51099249607545   -0.71026746109516    4.21711563131060
H         0.51342177658043   -3.21488500271609    4.32101130230844
H         0.14679936457905   -2.06764550659650    5.60316914446300
H        -1.14040990584528   -2.61720944008227    4.53752343743881
H         3.28254262125374   -1.49044083253072    3.84506288632916
H         2.41867930722546   -2.85998768291848    3.15461531260720
H         3.24285394132354   -1.70685539992739    2.09617615084623
H         2.70378716262051    0.76096063327259    0.80544358610233
H         2.39406936266580    2.16259654053656    1.82902637485739
H         3.46889744466595    0.86174592479968    2.38724205060816
H        -0.81396892333518    2.76654110648598    4.56540115337243
H        -1.28735201250869    6.02153444133355    1.83244380562980
H         0.21448687383406    2.27437781450083    0.41314651740208
C         3.87219268209096   -3.89760562962372   -1.55698491075881
C         3.58211542216042   -4.80980606355665   -0.64801236277885
C         2.36569721084124   -4.85715375466680    0.22913700559496
C         1.39575515029928   -3.69917253096319    0.01815373852859
C         0.17935736659184   -3.82436475729427    0.95052663813219
N        -0.67968703921036   -2.67825610552585    0.79108285974686
C        -1.71657837818873   -2.76974457030570    0.02519403513101
C        -2.50893347823648   -1.58771098613256   -0.16086960370967
C        -3.60735481295759   -1.48597801621679   -1.01820935589461
C        -4.26962840716566   -0.27935674898558   -1.12234620690523
C        -3.80603864422830    0.79652783631697   -0.35934195783716
C        -4.48700196876459    2.13632928278470   -0.45520401560971
F        -4.06615708394160    2.99679213709525    0.48316474540775
F        -5.81819184762279    2.03606271524668   -0.31903971983160
F        -4.26997385574091    2.72372087031568   -1.64334147639502
C        -2.70854157684440    0.63050573012312    0.46943645701511
N        -2.07771819913015   -0.53139570318066    0.57283599088870
H         4.77642754175283   -3.95820518155318   -2.13879494328126
H         3.23631760614851   -3.05574369467642   -1.76839855778678
H         4.26612858938281   -5.63354710683542   -0.48421385311059
H         1.85491142052906   -5.80625008262992    0.04192985286491
H         2.70204902477593   -4.87839705377671    1.26926275196586
H         1.89843563946513   -2.75118549006611    0.20967487498505
H         1.04841645428816   -3.69257357203728   -1.01504986957460
H         0.51890854153834   -3.86325041431747    1.98630980046971
H        -0.36730536480783   -4.74204586160922    0.71608588938857
H        -1.98568315623044   -3.69727878689347   -0.46807674665873
H        -3.92005583420910   -2.34058663936173   -1.59643586311886
H        -5.12227767884333   -0.16012066711513   -1.77313062796023
H        -2.33206169597329    1.45623438942674    1.05686438724327
Cl        0.60195039402372   -0.31951465237876   -0.64547458223330
