87
 energy: -111.055883258307 gnorm: 0.000606692726 xtb: 6.4.1 (afa7bdf)
Ir       -0.65441119661726   -0.03474095923009    1.87944576710458
C        -2.27593424194719    2.27184686282504    3.88353678917490
C        -1.22346706344500    1.23588767868465    3.66104385709441
C        -1.46144207370221   -0.16901125491736    3.96172804793134
C        -2.76689421744206   -0.71626381540472    4.42828234088307
C        -0.21798297022578   -0.84416794371079    3.96829832636897
C         0.01484818711001   -2.24755511775534    4.41206953979064
C         0.78212179068517    0.09216147986965    3.53303888143047
C         2.25567582320463   -0.14886997027189    3.53145274937367
C         0.16243582463158    1.40690011311661    3.43230846519026
C         0.98072109684922    2.66728771201695    3.36446839890012
C         0.55280846226324    3.71234571985429    2.33037710026256
C         1.55018543092072    4.86808809725576    2.33388530086856
C         1.61974820631395    5.51209157977405    3.71640826708365
C         2.00482867594596    4.47717385427536    4.77013007967662
C         1.02367917983283    3.30821241793942    4.76287805956641
H        -3.19667639017219    2.00993108068022    3.36779564555674
H        -1.95227871547536    3.25235097186397    3.55424670601668
H        -2.49597249321316    2.32270358911890    4.95086098339942
H        -2.81819030757715   -1.79247135820585    4.28621125513077
H        -2.88527659756392   -0.50877049602764    5.49246826557454
H        -3.59803689913335   -0.25385447345444    3.90187056383783
H        -0.85495860856243   -2.87156279695928    4.22371612645741
H         0.87639178669056   -2.68855858086155    3.91865452760057
H         0.20467810066708   -2.25019295980852    5.48630010449866
H         2.48145509247079   -1.20862362811590    3.60896357784421
H         2.71180234271924    0.24205452428935    2.62383828448821
H         2.71098747087966    0.35651980012024    4.38355563806709
H         2.00213193413747    2.37597737608565    3.10247504978715
H        -0.43435273030094    4.11166428491736    2.56329257379726
H         0.52218406948568    3.25200983896273    1.34261326726717
H         1.25469075017267    5.61270031417224    1.59240845980805
H         2.53928626259961    4.49898217754606    2.05392355164796
H         0.64691143500373    5.94130126530512    3.96790279835732
H         2.34867706634313    6.32518710893664    3.71252352391918
H         2.01719248123279    4.93973047070158    5.75957800949459
H         3.01280152249329    4.10985221749779    4.56291106110261
H         0.03002030022563    3.66687753020702    5.03467232512966
H         1.32679674039045    2.56586829187746    5.50437174810313
C        -0.38305742840374   -1.60792440606498   -2.28880909868768
C         0.46564789401523   -2.74826989708827   -1.73390806275732
C         1.43022604501819   -2.29255856026291   -0.63032053165247
C         2.76812172842204   -3.04387408072409   -0.69757454501086
C         3.64999887274408   -2.56061662813740   -1.84417917273832
C         0.84117417975297   -2.50442113155847    0.78712345002835
N        -0.41039071919308   -1.82448198304521    0.98641584201526
C        -1.51106280982247   -2.44749078498477    0.76626288894203
C        -2.75429255389106   -1.72169251266372    0.82402186911517
C        -3.97164375635508   -2.37148374060562    0.76346034320262
C        -5.13043196455315   -1.60162234581058    0.86336257522144
C        -5.02013703587927   -0.23923828555007    0.91785423214634
C        -3.74410204102016    0.39040030655286    0.87236239043041
N        -3.64617081410344    1.72439530759566    0.78240503092429
C        -4.82327457429310    2.57702385738962    0.89887634152304
C        -4.40670352696406    4.03613535999750    1.04445007730501
C        -3.68239768154217    4.52431743412860   -0.21291593433688
C        -2.86657402835559    3.38000981732665   -0.82495558408120
C        -2.46160069732945    2.36727960379435    0.24255586210483
N        -2.62564807640790   -0.37143493272769    0.92831799362364
H         0.25040418160178   -0.88436327354369   -2.79549864541286
H        -1.10901582697957   -1.98741902784073   -3.00419096439705
H        -0.91166839343851   -1.08486086230307   -1.49654216275781
H         1.04235961450156   -3.17388070682420   -2.55607991026220
H        -0.18100017063137   -3.54599519827903   -1.36250237923713
H         1.62423198218341   -1.22556901307542   -0.75578323573212
H         3.31507708840007   -2.89622303873681    0.23579219424332
H         2.58095553279625   -4.11465321828872   -0.80570047721650
H         3.86042030528810   -1.49909794127080   -1.73854177168975
H         3.17336645594346   -2.71771631601097   -2.80826971711658
H         4.59462934903697   -3.09995885430757   -1.84344760731429
H         0.71094034733567   -3.57988762855535    0.95025250777589
H         1.56266333993973   -2.11126874492466    1.50378690765428
H        -1.53130600018329   -3.50128731202591    0.50873668580193
H        -4.01387414653797   -3.44243163997975    0.66549262679710
H        -6.10059708534833   -2.07249326110255    0.87316647244208
H        -5.90965751015060    0.36343493893100    0.95548336792569
H        -5.46531115935856    2.47331427509911    0.01591210370180
H        -5.39342273511253    2.28016228478219    1.78307486909253
H        -3.75932184118535    4.13821774339180    1.91507360173638
H        -5.29661103474856    4.63894758885186    1.22640993885788
H        -4.40389881013745    4.88949826256964   -0.94468315996315
H        -3.03250463775348    5.36000514739963    0.04696106923389
H        -3.45052202663074    2.86549676588901   -1.58956041198961
H        -1.96645031136268    3.76258758744120   -1.30396524539257
H        -1.89703769567557    2.86672034217938    1.03210126817468
H        -1.82663367410333    1.60512223676506   -0.20751370100991
Cl        0.56386532263204    0.92808346296784    0.09960779109422
