71
 energy: -116.326633845647 gnorm: 0.000418895462 xtb: 6.4.1 (afa7bdf)
Ir       -0.58478776242676   -0.69587516113845    1.57562368996321
C        -1.99820847176679    1.10057572368750    4.11633345310855
C        -0.78935015067452    0.45816650624249    3.53216606020886
C        -0.37092329091644   -0.89776525305736    3.78267480142687
C         0.93812592173997   -1.07111146524334    3.20825387579608
C         1.84376614355722   -2.22091870921338    3.48150959719389
C         1.26770678534139    0.12236282670148    2.49931805604390
C         0.19159148157122    1.08381098068717    2.71573260838298
C         0.28105928780967    2.52498192358841    2.43193449825739
C         0.22660924921511    3.42330791888575    3.49762089362580
C         0.36701748615146    4.77865742577439    3.27834275588891
C         0.55964133063335    5.27993287695210    1.99170760908732
C         0.72651991330699    6.72258816257214    1.76125376392935
C         1.66315032377153    7.18628615962106    0.83900404218903
C         1.83279989483699    8.54202705134374    0.62758967343887
C         1.06601246694048    9.45796443508021    1.32936542655741
C         0.12840208693493    9.00853902033598    2.24497443946584
C        -0.03866620938269    7.65300437823867    2.46201714400586
C         0.60007757504404    4.37766147118724    0.92965103767197
C         0.46627684039644    3.02065554557975    1.14453487057527
C         2.58601449241360    0.46290005034769    1.89881034654357
C        -1.02930347134492   -1.83416424727670    4.73605148747946
H        -1.83326260597022    1.25806655244044    5.18266759045840
H        -2.87754102348902    0.46789910234393    4.01443035990114
H        -2.18985007083445    2.06611125590425    3.65498014307397
H         2.32893033328064   -2.05491203746654    4.44414876277375
H         2.61410169721801   -2.31037555122422    2.72222678144269
H         1.29540809784579   -3.15743269228927    3.53679737863845
H         0.10567093085355    3.05504558513977    4.50478151470613
H         0.35048725649678    5.45723969732795    4.11786886006371
H         2.27757283496113    6.48043780451201    0.29948491184645
H         2.56726471661736    8.88660597287789   -0.08609416225959
H         1.19846986133324   10.51691547033056    1.16287920514258
H        -0.47526842221902    9.71890524439734    2.79134270155288
H        -0.78421175870053    7.31315079093824    3.16616784552962
H         0.72227511075712    4.74561384488746   -0.07790675512110
H         0.47838977643187    2.34156979639232    0.30661000675790
H         3.15691571664702   -0.43004538331189    1.66295870570198
H         2.46082731843558    1.05617578961263    0.99694070357235
H         3.15110677288604    1.06128662696512    2.61430998923992
H        -2.10852689070829   -1.71022617124305    4.72934142512897
H        -0.78561571771648   -2.86686233955770    4.50401496280450
H        -0.67159260688062   -1.62140905813913    5.74431817929685
F        -5.31636964625216    2.26522015222954    1.51562548605937
C        -5.46747879907197    1.58387623973236    0.36979992309819
F        -6.77071135987568    1.30066941686833    0.25470818554816
F        -5.17196329478908    2.44180609441957   -0.62321985324018
C        -4.60260980329407    0.35180041781648    0.32326779665937
C        -5.02631088130872   -0.79634333524266   -0.35182899004160
C        -4.17528440629427   -1.88135556929140   -0.38854196531881
C        -2.93476176640670   -1.79763586816706    0.25079006646346
C        -1.93640471442808   -2.82169560813957    0.23140132949565
N        -0.79271254714226   -2.53598375306802    0.77563064409089
C         0.24257385224095   -3.47891962279921    0.75993734250502
C         1.51470865182013   -3.08253544872447    0.34458646849913
C         2.53851246966304   -4.00958195931427    0.29663846054829
C         2.31402385857672   -5.32192333852880    0.68735066438856
C         1.05310667930715   -5.71183319750466    1.11459388929591
C         0.01293037876860   -4.80189054030236    1.14214551509372
N        -2.54933507469173   -0.67801598860886    0.91677746905473
C        -3.35896068107145    0.37292170453403    0.93607261738964
H        -5.99304093373975   -0.82465697863770   -0.83035991983330
H        -4.44961797588756   -2.78344808360856   -0.91122608551688
H        -2.10983099064194   -3.76778478158374   -0.26721081215395
H         1.66515177889528   -2.06357809723644    0.02111818927062
H         3.51557291520556   -3.70848091462216   -0.04785945990320
H         3.11960125085188   -6.03863618065303    0.66001168100045
H         0.87866915793909   -6.73019306561096    1.42492096898337
H        -0.96550199614516   -5.09761175076767    1.48853320515381
H        -3.01349388978616    1.25662822219661    1.45339686541462
Cl       -0.13566948286158    0.03829191285882   -0.65635192307461
