84
 energy: -128.499692036865 gnorm: 0.000901687485 xtb: 6.4.1 (afa7bdf)
Ir       -0.64700897222690   -0.20928553837773    1.53101321305831
C        -1.71082891905822    2.07032803564938    3.94089597199135
C        -0.73470277544083    1.06881311353371    3.42801856440867
C        -0.85412219246242   -0.34479827538469    3.73979956328767
C        -1.94821807862403   -0.93975520685863    4.56084043461123
C         0.37997533749951   -0.97786256244309    3.40729581077206
C         0.79179078107261   -2.35191152584341    3.79799287946427
C         1.18960181940654   -0.01186476565156    2.72909763761918
C         2.60499345732801   -0.21710210104559    2.30621296963963
C         0.52395023179923    1.28240210142481    2.81159776396681
C         1.23517909461652    2.57999050174902    2.54555705584541
C         0.50841451437477    3.52623747022538    1.58751802854219
C         1.34272308764122    4.78022812837326    1.34725904847778
C         1.64041418544577    5.48826081655673    2.66634296943117
C         2.35765722556193    4.54452943479027    3.62807782931925
C         1.51890053292585    3.29471157126844    3.87727389954126
H        -2.72707494987670    1.69355393068709    3.86483637349295
H        -1.64547885538304    3.01527886915506    3.41416884498899
H        -1.50089196175938    2.24306084318153    4.99767670030797
H        -1.97326684380514   -2.02060614482676    4.45760112166207
H        -1.77853438330695   -0.70212743737658    5.61151403306254
H        -2.91763212353205   -0.53732667013279    4.27860712292607
H        -0.06094856924305   -3.02003392375848    3.87433069092957
H         1.50809267959726   -2.77199523958692    3.09756220550527
H         1.26880269099987   -2.30000791320404    4.77761814537151
H         2.81126053598131   -1.27054644431662    2.13809623819248
H         2.81623240115570    0.33230982796601    1.39168564452006
H         3.27523203713550    0.14446241240897    3.08649372413630
H         2.19947160602140    2.34283440423085    2.08666155241066
H        -0.45708474327598    3.82228739684206    1.99685680627839
H         0.33139748013338    3.01295933769653    0.64250573315433
H         0.80315650610668    5.45100420001373    0.67501343084998
H         2.28242382497041    4.51037418653256    0.86002011379460
H         0.70342358107796    5.82411257993571    3.11728926004654
H         2.25650424649125    6.37100649427043    2.48383274773991
H         2.54718867646628    5.05222121130838    4.57596345999163
H         3.32355992271124    4.26174995151973    3.20328320985041
H         0.57985913499094    3.58325167142383    4.34869290806879
H         2.04707695263400    2.62080397064352    4.55446726181783
C        -2.58312871247177    8.57866397964526    0.83184394613729
O        -2.82869462501702    7.18562196896261    1.00028520508324
C        -2.21952379842589    6.35522053779267    0.15031379546524
O        -1.46792372368010    6.72830384401756   -0.72329916071047
C        -2.56199955610181    4.93121125204127    0.39720194892586
C        -2.02049620407156    3.96518778866763   -0.44702416194142
C        -2.31404423259825    2.62892240967617   -0.25975211131866
C        -3.16403934687564    2.23846103469850    0.77327102375496
C        -3.59474658141332    0.83183575049269    0.83498312937795
C        -4.96719712027669    0.57481279185332    0.74920105923524
C        -5.42631190693882   -0.71915579319211    0.58174265317601
C        -4.49343458291854   -1.73578389283812    0.46616640605399
C        -3.14492518355526   -1.42721477869672    0.61973884737167
C        -2.11212141240495   -2.41673889141852    0.50697112269052
N        -0.89444449423650   -2.06129733736719    0.75359613295095
C         0.13668298761979   -3.00548193003521    0.63528902775522
C        -0.02232727298335   -4.29634584411870    1.13779769833176
C         1.00931629610676   -5.20945721010609    1.00276972081178
C         2.16948466856795   -4.83918810044011    0.35618030550946
F         3.16110455989962   -5.74371639490530    0.22050098909821
C         2.35596873043145   -3.54633132674472   -0.16498224695471
O         3.52223782593740   -3.29723009191394   -0.78594153356764
C         3.71958360249836   -2.02162255206880   -1.37089592395395
C         1.32326098291699   -2.63121007674322    0.00477749467859
N        -2.70145625874382   -0.16461208085405    0.85136923928345
C        -3.72535469758005    3.20962512170370    1.60353320774107
C        -3.41615654702533    4.54409731067517    1.42873598440493
H        -2.97481089802868    9.06241184465633    1.72204019626480
H        -1.51329013148649    8.76429666078607    0.72458250506087
H        -3.09545965699347    8.94359983371281   -0.06035747943863
H        -1.37197250526051    4.28187405900686   -1.24902027311680
H        -1.90853009591307    1.88889848603697   -0.92979936325586
H        -5.65251746290904    1.40645618090116    0.78027424359504
H        -6.48246251358176   -0.92507175551861    0.51074636905314
H        -4.78993720833811   -2.75379302647719    0.27461260956195
H        -2.35477076237092   -3.41765645780618    0.16846635561298
H        -0.92414644761489   -4.57834999859232    1.65593077020212
H         0.92228008378529   -6.21155635440620    1.39009408618975
H         2.95685081591536   -1.81038304502109   -2.12376133446723
H         4.69805826796305   -2.06978877374869   -1.84342217478009
H         3.71564991558553   -1.23632895049362   -0.61205525877952
H         1.40070037901836   -1.62882937763050   -0.38319868910144
H        -4.39998970287026    2.92001902839524    2.39466519883816
H        -3.84005273655131    5.29347450338882    2.07761030944188
Cl        0.19987708717025    0.49908594111716   -0.57081783941074
