62
 energy: -109.085455179202 gnorm: 0.000537402551 xtb: 6.4.1 (afa7bdf)
Ir        0.31041262268935   -0.73483709133968    1.67528792559709
C        -1.34692949269964    0.54996031323988    4.29225001491524
C        -0.04462720280647    0.33631990446614    3.60311742328633
C         0.86187977116455   -0.73876711886162    3.85316367170092
C         0.69181034285233   -1.80702697150677    4.87526045225789
C         2.05255557166978   -0.51026876282280    3.07376378326456
C         3.33930510757610   -1.24743593977730    3.22378083886329
C         1.89618873432236    0.72934126475096    2.37306487501406
C         2.96389508881643    1.42808716712540    1.61250290686580
C         0.57830709100402    1.23012839972320    2.65274175463810
C         0.09005492070790    2.55702631290268    2.24896546640575
C        -0.34587578649247    3.46489206019731    3.21245624958220
C        -0.75588731092000    4.72267113526237    2.81140053432717
F        -1.17107414599063    5.59546932389319    3.75063376512347
C        -0.75581478844404    5.12181515052942    1.48631981213120
C        -0.31937407975710    4.19695921779413    0.55333256246808
F        -0.30702680456620    4.54801723259272   -0.74754155586744
C         0.10203604169710    2.92823946219919    0.90436469121030
H        -1.94643409008443    1.29399220962812    3.77621525434148
H        -1.16091024681372    0.89856630963444    5.30858406658241
H        -1.91169490206584   -0.37663799648470    4.36278877965661
H         1.16685239688457   -2.73144366683802    4.55675672702261
H         1.16938611364604   -1.48620863737083    5.80176897311688
H        -0.35808788730744   -1.99143168249082    5.08169661607315
H         3.89802732567786   -0.81198964690932    4.05313983843128
H         3.17221695046688   -2.29782172234192    3.44330486381657
H         3.94327813193749   -1.16435217422174    2.32565951053767
H         3.13727777041228    0.94573742180332    0.65105292911240
H         2.68822690429876    2.46280217250184    1.42726647831330
H         3.89416944066160    1.39612901652772    2.17646327076971
H        -0.34105855276512    3.21908051292836    4.26125504844997
H        -1.07779129179619    6.10774444135833    1.19538800727247
H         0.42238611638445    2.23716313639569    0.13944207331577
C         0.23404369230158   -7.22159629042860    3.68750242598030
O         1.52051046167533   -6.93627997849959    3.16527784727654
C         1.71065446387406   -5.79461217368116    2.48372034816815
C         0.74246651147828   -4.82743373571772    2.23200438875247
C         1.06898950050836   -3.66644916837106    1.52683154690731
N         0.08162963731368   -2.70433638061763    1.26205887840790
C        -1.03800658471497   -3.06429833897556    0.71550827671301
C        -2.00138761715415   -2.03628656291393    0.46376066154507
C        -3.21489760959562   -2.22856543714775   -0.20269799328503
C        -4.05101493124086   -1.15124427779098   -0.40878741182799
C        -3.64203462095133    0.09838614213993    0.05674762581327
Br       -4.74832736994635    1.63012050635631   -0.16716858469206
C        -2.41903185948908    0.22960620945196    0.70247785361003
N        -1.62319944586934   -0.81049199449072    0.90682345138367
C         2.36125054533426   -3.45321870484485    1.05951840767284
C         3.32808619370914   -4.41947849858581    1.27939486278157
C         3.00433170047485   -5.56102306947664    1.98132663709283
F         3.95568684957274   -6.48983907700968    2.20011645969866
H        -0.07098318999068   -6.46712823107879    4.41631032470808
H        -0.50739847915533   -7.29970457455750    2.88904524385407
H         0.33484881502091   -8.18442708421370    4.18343730481444
H        -0.26263487137630   -4.95123153542629    2.60103415143662
H        -1.22316026527099   -4.09040719961539    0.42073852987394
H        -3.48398637821284   -3.21133552162178   -0.55523800309735
H        -4.99459509059322   -1.26363406334129   -0.91889285219939
H        -2.08347383077524    1.19506385140420    1.05276202549807
H         2.58351122881618   -2.56316879125226    0.49429729708016
H         4.33399742103977   -4.29802802904389    0.91152548686730
Cl        0.95008026259039   -0.44760474519241   -0.58994379947823
