75
 energy: -113.814481760161 gnorm: 0.000386207359 xtb: 6.4.1 (afa7bdf)
Ir       -0.06722052414021   -0.39682236850185    1.72310441613972
C        -1.64213518651565    1.62826576396911    4.00195218906190
C        -0.39254487733183    1.01236187958549    3.46880037093379
C         0.09909527488620   -0.26059323876466    3.93515777774740
C        -0.53343112442511   -1.07464984610216    5.01232333911795
C         1.43517379337370   -0.43623631713581    3.43084735804049
C         2.38357435676981   -1.49272823414008    3.88155763125393
C         1.71566081272009    0.65037632352947    2.56145522232825
C         3.02685350079992    0.94531289899779    1.91441903405234
C         0.57510235119714    1.56140455386120    2.58046950794830
C         0.63729564213797    2.94490071729200    1.99097872560955
C        -0.54401656911005    3.32125777483969    1.09030908973197
C        -0.30609416620772    4.70069626665968    0.48159171387491
C        -0.13267689664484    5.74834830783518    1.57891946844537
C         1.02221659451224    5.37047468866034    2.50303425419261
C         0.79955802978993    3.98750400993911    3.10916104204567
H        -2.47022006398206    0.92259220303919    3.98136003210518
H        -1.92290248685611    2.52088279594101    3.45560678648989
H        -1.47063446962632    1.90385644583830    5.04325597620421
H        -0.18769320345110   -2.10359389127829    4.97917798600457
H        -0.26000063693387   -0.65747412144035    5.98218814041423
H        -1.61675558463441   -1.06130663704920    4.93334569451750
H         1.87013565378734   -2.43117420843450    4.07229297502725
H         3.16449858222140   -1.66976963736366    3.14824276264948
H         2.85241130714748   -1.16748369926989    4.81095508502604
H         3.68814121947577    0.08544799711369    1.96318866170254
H         2.89091044349542    1.22101029785663    0.87041086755275
H         3.50638136914058    1.77878508863627    2.42812417029650
H         1.53248909584391    2.99003399543464    1.36381679156902
H        -1.47148703877421    3.35309693828239    1.66275284535079
H        -0.64487116092398    2.57640881764328    0.29919788164281
H        -1.14598920685421    4.97064069955522   -0.16159920154088
H         0.59066594374609    4.67500592526305   -0.14117455301087
H        -1.05413593905953    5.82457514449265    2.16124216839306
H         0.05711606122955    6.72603858737356    1.13156096938748
H         1.11614159773253    6.10920639968756    3.30166868086002
H         1.95510938184289    5.37560295762132    1.93458821821906
H        -0.09386226730732    4.00706344165844    3.73354158287077
H         1.64645102073277    3.71892115366405    3.74338654511600
C         0.91737722526222   -7.09983761479513    2.81978209171179
O         2.12221139433893   -6.53084585916018    2.33818084554602
C         2.09926177238507   -5.28155545340597    1.83809708889364
C         0.98225744954964   -4.45580579874873    1.77014274145060
C         1.08196223700010   -3.16825858862701    1.23796840964007
N        -0.05313772294749   -2.35021197411918    1.16005002474076
C        -1.15700350076181   -2.82013508662754    0.66583532306349
C        -2.26448597206808   -1.92513569611009    0.58605925512996
C        -3.50514083017760   -2.23752061668608    0.01840147102639
C        -4.47752375630421   -1.26964324764977   -0.05272440709745
C        -4.20115807957125    0.01959549137991    0.43708644413413
C        -5.18810361452853    1.06320470412230    0.37242332922411
C        -5.14882351268873    2.39561676034212    0.73284184062622
C        -6.41663642678054    2.92539043250712    0.43330045855801
C        -7.14268812406548    1.88928667748930   -0.08541204115064
O        -6.41495915955364    0.77190699151165   -0.12667636136712
C        -2.93789146657369    0.25048220957395    0.99509928302016
N        -2.00699655363488   -0.68525609206685    1.07963126268224
C         2.29836141288697   -2.68622020147970    0.76669985764978
C         3.41402053027952   -3.50442344798670    0.80901817375516
C         3.31082414771222   -4.77260270857584    1.33934232363969
F         4.40838075007066   -5.55722433983171    1.38505319129681
H         0.52022439463417   -6.52994841037646    3.66316223778340
H         1.18671545518528   -8.09954649225462    3.15325659120875
H         0.17005961874907   -7.16973156522962    2.02579340321760
H         0.03151753346562   -4.79217918588985    2.15084063415948
H        -1.22376243613415   -3.82948834775213    0.27740096930016
H        -3.67687728285428   -3.23077346307036   -0.36374921840780
H        -5.44324529957764   -1.47813758563330   -0.48426486119709
H        -4.32095265072976    2.93030653028767    1.14825145090246
H        -6.74783922106051    3.93231843637772    0.57917651875331
H        -8.15109489762259    1.83597890176137   -0.44606187072749
H        -2.68306331963291    1.22568078150216    1.37789966712822
H         2.34837766096537   -1.70055141642368    0.33336447844517
H         4.36691567652559   -3.17217513754566    0.43030722311246
Cl        0.38740193849432    0.11874453843741   -0.56509403723649
