56
 energy: -88.377497362845 gnorm: 0.000539851360 xtb: 6.4.1 (afa7bdf)
Ir       -0.87430666548814   -1.27084481670728    1.54780111250015
C        -2.43903439162021    0.65184758428273    4.04100327575401
C        -1.27907493095364   -0.11827770879457    3.51815452741172
C        -1.08975768581454   -1.53035535360524    3.75616839958593
C        -2.01522867487444   -2.38761061923412    4.54916420558048
C         0.26089184856801   -1.86480085398961    3.39858460753569
C         0.96147256763751   -3.12296961593166    3.77606614613331
C         0.85117226092646   -0.70535663657188    2.80562987145890
C         2.27791903116578   -0.52844380027644    2.42031418435571
C        -0.11022044697640    0.38207160717768    2.89113904455485
C         0.22328136307193    1.80241858128773    2.58816286480864
H        -2.39176881824237    0.63827815783980    5.13067132937691
H        -3.38483513834954    0.20346914153214    3.74679140870958
H        -2.41885805586586    1.68295652215522    3.70634396669901
H        -3.05243729147241   -2.13000519462950    4.35454410001291
H        -1.86202316934986   -3.44062315538055    4.33099621078381
H        -1.82271057517484   -2.23134201979983    5.61139638898998
H         0.29549191757822   -3.98064672367773    3.74265695066596
H         1.81560745976597   -3.31537449732632    3.13414363889334
H         1.32265225613948   -3.01611598265307    4.79969684687262
H         2.35870897131630    0.03974526358261    1.49628742228343
H         2.77636694976126   -1.48454274906338    2.29359472966812
H         2.79079603270882    0.02994088447245    3.20380454660296
H        -0.66341201382723    2.42790117315495    2.60024721237319
H         0.69568206183098    1.88202253655175    1.61185811531868
H         0.92554921190161    2.17330787390655    3.33478246740744
C        -3.33103652177906    2.71675738504925   -0.21983882943994
S        -2.79658052312857    1.38885968495163    0.89737305701058
C        -3.45272072643724   -0.07691137253488    0.23684782171439
N        -2.72466004304562   -1.17707629987453    0.48232943014915
C        -3.05782409084057   -2.34853002844910   -0.11184169886043
C        -2.09570373726715   -3.38807895410355    0.06167474667478
N        -1.00384440674110   -3.09152064059759    0.69907142775654
C         0.01491086231626   -4.04910439283901    0.79551944094399
C         1.32458384250617   -3.67711061481099    0.48835842943795
C         2.34029623986104   -4.61117434903963    0.54075623519036
C         2.05105927305235   -5.91464088417521    0.92226806144597
Br        3.46388873494366   -7.21141707369466    1.00720499919450
C         0.75608820731782   -6.29322646527323    1.24798940064091
C        -0.26285289863740   -5.36335565320366    1.17553930126061
C        -4.19340579673512   -2.48132068123286   -0.91441913415151
C        -5.01236024618255   -1.38706110604169   -1.08262518684468
C        -4.65080582798226   -0.16482962342762   -0.50407696549652
C        -5.56759943352577    0.90069462492103   -0.62813507502363
N        -6.38121448651677    1.70365356273251   -0.72806386012848
H        -4.31644403523918    3.08291600917592    0.04612249529724
H        -2.59382410074605    3.50369083885218   -0.08652835883457
H        -3.30522959567109    2.36214002953064   -1.24468398928461
H        -2.23732991098148   -4.35495632268416   -0.40624690281018
H         1.52370105631123   -2.66400427115506    0.17379472374342
H         3.35062529696186   -4.33277277947643    0.28720282670362
H         0.54797977471228   -7.30647895602979    1.55201507987101
H        -1.26936517123000   -5.64834345371953    1.44001340181187
H        -4.41548632007161   -3.42528534137741   -1.38246728533255
H        -5.92573407190953   -1.45102116872715   -1.65367637259903
Cl        0.03260058213584   -0.38865329951333   -0.46721579495115
