74
 energy: -122.811471931378 gnorm: 0.000280515617 xtb: 6.4.1 (afa7bdf)
Ir       -0.50021567486408   -1.13315081697571    1.37587877486722
C        -1.81950035640380    0.48840511691191    4.12958972374808
C        -0.64398161997792   -0.06197964418360    3.40793093140230
C        -0.15968347073331   -1.40504074102525    3.56871619235025
C         1.10216660841279   -1.50532965303798    2.88601621187021
C         2.09894625291778   -2.59756651528699    3.04792146626386
C         1.35426199096052   -0.25256684565553    2.23416823406507
C         0.26401029283911    0.64690523184221    2.55591456484561
C         0.28681364750799    2.09510614794963    2.30971725172690
C         0.18198877506731    2.98041207979454    3.38182259144682
C         0.26629071597940    4.34218936073863    3.17316049636304
C         0.45750038285767    4.86111084522022    1.89369707527980
C         0.56154136237884    6.31176805962875    1.67849689392644
C         1.51032534591203    6.83141889229419    0.79989646822077
C         1.61965106202268    8.19662116839750    0.60912399052486
C         0.77781799386547    9.06433524591036    1.28575170565870
C        -0.17398799778306    8.55803649007285    2.15608937023936
C        -0.27927120941060    7.19362160387879    2.35464105983067
C         0.55722360317332    3.97130620577691    0.82510865674184
C         0.47415128921011    2.60922888470686    1.02775394951104
C         2.63928026807486    0.12399105204599    1.58923800594840
C        -0.72254610929974   -2.40978648278779    4.51352334161703
H        -1.59192178131483    0.50779464904315    5.19626810140232
H        -2.69637900689249   -0.14217872998869    3.99902194054950
H        -2.05008127537140    1.49582780995221    3.79923377895396
H         2.70244980375062   -2.37277925857429    3.92849213678690
H         2.76129535219413   -2.65751163927205    2.18968783666818
H         1.62268478561284   -3.56155127459724    3.20049535224578
H         0.07034124395538    2.60135988586046    4.38533709883557
H         0.20778339209677    5.01406274174113    4.01590292952281
H         2.18122845703419    6.16328643517513    0.27983298039382
H         2.36550178033363    8.58686839699563   -0.06837968139429
H         0.86273107085758   10.13049906641246    1.13426229889658
H        -0.83617721805227    9.23088009947756    2.68154712905302
H        -1.03434540647148    6.80536939953796    3.02230609983756
H         0.68399521672462    4.35396354130028   -0.17628899759314
H         0.52263539452908    1.93625872757055    0.18538052418415
H         2.91806283419538   -0.58676447167146    0.81500438903151
H         2.57619658098339    1.11475960723821    1.14988943775018
H         3.42389800358869    0.12247228547183    2.34641145638167
H        -1.80598158472985   -2.34457238899409    4.55784525467694
H        -0.43492323878276   -3.41894088743957    4.23282787542683
H        -0.33328213649577   -2.21204443040011    5.51305881365309
C         4.74584359608042   -6.66170385246472    1.77046531917497
S         3.63392902547774   -7.06461564402072    0.39999755159154
O         3.05790141213741   -8.36812334038613    0.62738461265469
O         4.32880231939214   -6.85161639016735   -0.84663830843802
C         2.31773507935353   -5.83723856546053    0.52485195117228
C         1.14786633572314   -6.15971892704332    1.18795801337318
C         0.12349134350399   -5.23201104247716    1.25579938030595
C         0.29347315022037   -3.97636039354970    0.66967777046655
N        -0.74257598338129   -3.02951784601895    0.68775899982838
C        -1.91242616474760   -3.37997840841141    0.25832961828790
C        -2.91922241429719   -2.36912122537431    0.18347845723419
N        -2.55763083844921   -1.14683081641232    0.64682064052984
C        -3.39651858917567   -0.13199128586666    0.45399380540096
Br       -2.85046733626970    1.58426109328449    0.98622759103819
C        -4.65049359290256   -0.27393128847054   -0.13059759994119
C        -5.05895742828419   -1.52465846358606   -0.56575182287382
C        -4.16987266497772   -2.57242610621004   -0.41351631803602
F        -4.48154861349303   -3.79579234217048   -0.84572864182934
C         1.48744428351166   -3.65227511859457    0.02346039135959
C         2.49579718456479   -4.59518043579784   -0.05842842345433
H         5.58713785600817   -7.34208786007025    1.71605933969844
H         4.20326844417609   -6.80168594722670    2.69589408749187
H         5.07753524723495   -5.63956631191275    1.64499472474538
H         1.04716391367262   -7.14293153201438    1.61900572296024
H        -0.79650324988660   -5.46793139788682    1.76813071519652
H        -2.11512926219594   -4.37776876380448   -0.11494869472667
H        -5.28902527026238    0.58790560903235   -0.24018708419178
H        -6.02339166298582   -1.68244463634784   -1.02217997973795
H         1.58625906642827   -2.68318749780348   -0.44160725008028
H         3.41179130333421   -4.39248108560590   -0.58968533594815
Cl       -0.05818690992583   -0.48047642831881   -0.87420594497883
