63
 energy: -102.444644062049 gnorm: 0.000870343586 xtb: 6.4.1 (afa7bdf)
Ir       -0.69743529266297   -1.51627650489727    1.10405009476189
C        -1.98352390956832    0.53107771301430    3.51881682228551
C        -0.81065281933516   -0.14304428767907    2.89490258551161
C        -0.30457397581877   -1.43163107708264    3.29234329796937
C        -0.83632981336322   -2.26064987559175    4.41036517375919
C         0.96906197434809   -1.62852985896034    2.64295542794486
C         1.94059952107397   -2.70297476178503    2.98942871852533
C         1.19412788014947   -0.52443863318019    1.77716226672876
C         2.43108321537272   -0.21795217711709    1.00886543115291
C         0.07552337742064    0.39470032609749    1.91733758744264
C         0.04945199205403    1.76263910781153    1.32308380903782
H        -1.69778306062830    0.86740483136703    4.51593057242873
H        -2.82296972595122   -0.15141393067736    3.62802985267468
H        -2.29409616954640    1.40134114669910    2.94872472756738
H        -1.91228654328052   -2.14992863783515    4.50582893256051
H        -0.59762852680928   -3.31059178182401    4.26659082982595
H        -0.37661991364738   -1.93552780644382    5.34440035732023
H         1.43835443913686   -3.64527675633019    3.19173986462053
H         2.66649160383821   -2.85368551022684    2.19579713314158
H         2.47914205353861   -2.40527784091400    3.89004273671512
H         2.18443720689896    0.16481943793756    0.02079095907310
H         3.06241741912341   -1.09459715215669    0.89687362952081
H         2.99764701264981    0.55121527878154    1.53472710604453
H        -0.90704521027957    2.25071718898094    1.48231280944025
H         0.24741292768539    1.71672623388306    0.25428173747351
H         0.82882173910673    2.37081965771425    1.78222228445280
C        -5.30569483896063    1.64393054609778    0.30357229078153
O        -5.64990538520704    0.35099879435484   -0.17514246870593
C        -4.78237817024853   -0.64592276406520   -0.08897034248901
C        -3.51064155845593   -0.57420608108190    0.48520335513800
N        -2.68170035595073   -1.61221067505763    0.54041580230952
C        -3.06375891873459   -2.79964161055681    0.01332794740751
C        -2.05670006341177   -3.81095753168642    0.05638915838125
N        -0.90161347178463   -3.46504753511280    0.53360804939974
C         0.13902359267776   -4.39926805271131    0.59376364373117
C        -0.06788638909086   -5.66650393878553    1.15479211935863
C         0.96727852147244   -6.56880793750766    1.21363753259020
C         2.23608487862671   -6.25206454100031    0.70978345452305
C         3.36416029966253   -7.15653165816014    0.73270264493370
C         3.22199368014176   -8.51792320661928    1.32152578961671
C         4.53453794554038   -6.72656849968383    0.20511114122329
C         4.70678056301925   -5.41105737768831   -0.36995165874155
O         5.73430278849477   -4.98076947400485   -0.84693257171478
O         3.61713223800985   -4.58225988576861   -0.36141431893847
C         2.42773109263068   -4.97788262617331    0.14628219307171
C         1.38726957264537   -4.05451203330901    0.09763496332719
C        -4.32676877824667   -2.96840463802872   -0.56637417442565
C        -5.18415794470138   -1.89636053310472   -0.61490304034401
Br       -6.91327263552551   -2.03290873563950   -1.39035157403780
H        -4.42988368843157    2.03262295006073   -0.21921151687217
H        -5.13377618154930    1.62592579610750    1.38134817360845
H        -6.16911724003886    2.26766970038468    0.08280770886732
H        -3.14772939884776    0.35145695158489    0.90326823106085
H        -2.23868193869109   -4.80192357753874   -0.34236881290569
H        -1.03473456168080   -5.91939846352712    1.56063964901634
H         0.80033034398711   -7.53867630450466    1.65148960452330
H         2.46412757022149   -9.08355205323439    0.78272795008063
H         4.16371570223976   -9.05555305784199    1.26506122851746
H         2.91840365601660   -8.45052988593291    2.36442051171547
H         5.41380469385926   -7.35084563591173    0.18622423646058
H         1.55056678051401   -3.09100789340083   -0.35914561544447
H        -4.61019011059426   -3.92285333881399   -0.97905824832612
Cl       -0.33931069113200   -0.99574952174095   -1.20311978467095
