64
 energy: -97.144924985850 gnorm: 0.000207418023 xtb: 6.4.1 (afa7bdf)
Ir       -0.14804471646812   -1.05980748460741    1.59102246039564
C        -2.16404155047435    0.36366899549818    3.92675826613786
C        -0.78880700413404   -0.00494361074053    3.48780164610456
C        -0.10057724372995   -1.19943268469615    3.86508263119379
C        -0.64604748336488   -2.21371827098935    4.81134999468193
C         1.27365532667947   -1.07981315706983    3.43274017109642
C         2.41884861223074   -1.89204240295788    3.94201611449896
C         1.40507216539667    0.13891741222950    2.71650115049454
C         2.67352795250671    0.74714094035473    2.23257644520173
C         0.11242840264621    0.80131260391486    2.71754262738553
C        -0.09502413016775    2.21205120836943    2.34731755363950
C        -0.46182234538702    3.11959091446398    3.34004078337874
C        -0.60909959622153    4.45322735272612    3.00951797097062
F        -0.95682139299566    5.32495245633702    3.97895309302407
C        -0.41278758311920    4.92972044586479    1.72556606875272
C        -0.05412573858661    4.00248391918625    0.76261534277097
F         0.14109987582667    4.42912011223990   -0.50177245824442
C         0.10840830046987    2.65948999412317    1.04473630987700
H        -2.50808315948624    1.26841947635601    3.43427248804295
H        -2.15376537647599    0.54052460596230    5.00274402712310
H        -2.87271729227614   -0.43929397293794    3.73593621422389
H        -0.15001421511614   -3.17370438243401    4.70883981866767
H        -0.49275671946584   -1.86052353234412    5.83213524363311
H        -1.71290533758882   -2.35226062080382    4.66074574145731
H         2.91502512321495   -1.32233101827451    4.72924866469382
H         2.08713484912632   -2.83259186333131    4.37033577296559
H         3.15609594079762   -2.09056359777550    3.16813957581337
H         3.46493930921148    0.00652433449859    2.16848328034204
H         2.54042593839844    1.20133835025402    1.25413826694200
H         2.98109473445581    1.52982587254144    2.92696326810271
H        -0.60678913720680    2.80592549257922    4.36082376694589
H        -0.52986677838686    5.97373072942844    1.48767664533743
H         0.37359351783919    1.97227405170076    0.25630573299304
C        -1.32198722893768   -3.14803882193387    0.01705344498557
N        -0.27572919245598   -2.96199931686079    0.74434379367823
C         0.73520104558641   -3.99859318888486    0.74930015857723
C         2.10877674016929   -3.41066560762160    0.41448695157053
C         3.16609688090566   -4.51106030972561    0.42177435415381
C         3.20198078357785   -5.22921623414800    1.76771557918853
C         1.82762600234748   -5.80282065268496    2.10067976487220
C         0.76940405604155   -4.70292271243304    2.10980756952215
C        -2.28823622175184   -2.08957644882955   -0.07200382996772
C        -3.44650291332464   -2.14210189866010   -0.84668305973564
C        -4.25880416662655   -1.02496777681423   -0.91219116445779
C        -3.87733243923211    0.11776340722242   -0.21776446052214
C        -2.71544240589527    0.09782564519682    0.53366408520992
N        -1.94636027996985   -0.98342399567833    0.62691621793815
H        -1.46490946926658   -4.05585085003248   -0.56010920433290
H         0.48322211792630   -4.74184306489488   -0.01827539326097
H         2.06843200241609   -2.93781497878883   -0.56692754285279
H         2.35987487062014   -2.64001224517471    1.14348877699106
H         4.14150746592393   -4.07368945995056    0.20422149606370
H         2.94504357328016   -5.23229387665572   -0.36786330149072
H         3.50682339739829   -4.53079048383973    2.54862073774242
H         3.93963199582472   -6.03240463186664    1.73596512067305
H         1.56268219966631   -6.56031584966410    1.36035967104376
H         1.85386885893170   -6.28907693836725    3.07697257355999
H        -0.21266517323745   -5.12810067592516    2.32131875551853
H         1.00593502516663   -3.97095921230121    2.87801118773472
H        -3.68503414081485   -3.04363941923940   -1.38776266136081
H        -5.16264766850996   -1.03486717990215   -1.50048378570138
H        -4.46995820937976    1.01695589199557   -0.25641311021984
H        -2.39055979318724    0.97801603465681    1.06715750770334
Cl        0.72019803874953   -0.41714481776230   -0.53067791143257
