69
 energy: -112.687848013331 gnorm: 0.000342691823 xtb: 6.4.1 (afa7bdf)
Ir       -0.66718726140154   -0.37161628522827    0.77706477588799
C        -1.76298304821752    2.23315256989450    2.86396240613282
C        -0.81141136070776    1.15083832259784    2.49715243305808
C        -0.91704627906679   -0.20839842952248    2.98319896774261
C        -1.99840819904942   -0.70974472071556    3.87798485734720
C         0.33636710284291   -0.86349302617230    2.73892667914234
C         0.75819215381220   -2.16022489612333    3.33331254726947
C         1.14739439053168    0.02437178110227    1.96738789100763
C         2.57945391770178   -0.16062782730460    1.60378109674684
C         0.44171878274948    1.28986685271613    1.84989404822693
C         1.07592517495002    2.53781056761857    1.34393546261779
H        -1.57854885876682    2.50821930367158    3.90355773057995
H        -2.79446387618007    1.90179913168910    2.78567232492694
H        -1.62519271973955    3.11529622661515    2.24792658210890
H        -2.96308868376319   -0.29702779897129    3.59680707752097
H        -2.05609539562202   -1.79416254759730    3.85826889417803
H        -1.78537884993446   -0.40074040639594    4.90209578642013
H        -0.06858898605549   -2.86206906379548    3.39849280034243
H         1.56888127717517   -2.61549566218614    2.77211367703276
H         1.11488014878147   -1.96839690245406    4.34643931817568
H         2.77713712665320    0.23412429054157    0.60991699584529
H         2.86706483906860   -1.20716938325736    1.63395696461337
H         3.20033237594649    0.39001742877016    2.31111618108411
H         0.36523959768268    3.35638704571757    1.29363426327797
H         1.50127290244662    2.38042255412793    0.35505260063433
H         1.88843840416477    2.81944127436371    2.01420903294602
C        -2.86336691026962    8.41491233530141    0.78295383854520
O        -3.09353775587628    7.01566942791694    0.64408485807728
C        -2.07461879201838    6.27421382442065    0.20611173535222
O        -0.98657807279054    6.72632401439227   -0.07592210029626
C        -2.42360415908130    4.83286244577709    0.10175588939350
C        -1.51617064809297    3.97347622316652   -0.51328598834140
C        -1.80176730187107    2.62735690496458   -0.64586421304356
C        -3.00866239057234    2.12165371823465   -0.16774527387780
C        -3.40104587149951    0.73207277877206   -0.45322091227000
C        -4.65092152436707    0.54722459594128   -1.05584493991972
C        -5.05848288362848   -0.70913669490476   -1.46560712870936
C        -4.18963858088370   -1.76844115870584   -1.27699769260350
C        -2.97220343525903   -1.53266247365005   -0.64196758611942
C        -2.01946927500183   -2.58031953472980   -0.43335525268806
N        -0.91128211155630   -2.28431986461101    0.16315041761078
C         0.05341227119863   -3.28134028553099    0.35899826837149
C        -0.29742904268297   -4.48736933273477    0.97387852405136
C         0.65539832857957   -5.46745958766193    1.16054370526950
C         1.95912981721921   -5.24494511106724    0.72579422861232
N         2.94935093688384   -6.26790690741580    0.91080660190465
O         2.59773998091498   -7.31829968583839    1.41521267598362
O         4.08878986797028   -6.03088098291015    0.55460510171003
C         2.31718692426358   -4.04655672590439    0.11218903557148
C         1.36600187431096   -3.06393606687759   -0.06555214673715
N        -2.58666124958465   -0.30246130207770   -0.20787731312175
C        -3.91696428770842    2.98549000072479    0.45138419206700
C        -3.62597337218300    4.32714504000147    0.59441025622759
H        -3.83682040563720    8.86409556596195    0.95859955750668
H        -2.40762786866538    8.81607141256047   -0.12410734938324
H        -2.19546114655435    8.60198113258866    1.62587205708187
H        -0.59695075751939    4.38476222112306   -0.90179168281752
H        -1.10911228324999    1.97961225281831   -1.15760513290133
H        -5.27746099795133    1.40870707502268   -1.22093539969730
H        -6.01835341202534   -0.85251226541761   -1.93572061367269
H        -4.43366751438721   -2.76392817968202   -1.60958295506020
H        -2.20829449012085   -3.57663192068425   -0.81802855667809
H        -1.30903563154166   -4.64362948928916    1.31502410167841
H         0.41000795665825   -6.40483115315888    1.63525751374087
H         3.33394963658961   -3.90614746806808   -0.22043014278342
H         1.61390652851033   -2.13613009647961   -0.55647036467322
H        -4.84987783744757    2.60119596677541    0.83491373425918
H        -4.32522149773960    4.99121290464987    1.07566751473668
Cl        0.33262870873844   -0.01419195334512   -1.37237845723967
