72
 energy: -115.353780085076 gnorm: 0.000323231339 xtb: 6.4.1 (afa7bdf)
Ir       -0.05825230342187   -0.58771140310644    1.63687606844875
C        -1.69859941005197    0.84005200605017    4.21427664292041
C        -0.40577372787054    0.39663945256374    3.62305006311218
C         0.21634567672827   -0.87319735653881    3.83738240380905
C         1.51892678129847   -0.84238740247795    3.21713437563155
C         2.59520863418431   -1.85203820932933    3.42391002556894
C         1.69381602188268    0.44082187512993    2.61600692882701
C         0.48117429301782    1.19858052851357    2.82058772399719
C         0.31852470343808    2.62666470913543    2.50590754769621
C         0.05797013242134    3.54561849087138    3.52101580508931
C        -0.04735367222918    4.89214507436051    3.23266106226717
C         0.10615815522701    5.35991231151311    1.92851885855039
C         0.01101639892374    6.79550556105429    1.62406030935191
C         0.90726708042568    7.38969778563104    0.73758340500761
C         0.82360840964181    8.73984568217397    0.45145949137810
C        -0.16123001621031    9.51678453138186    1.03973974440278
C        -1.05983049182342    8.93532511101161    1.91945867258684
C        -0.97257721897434    7.58686445648398    2.21351247626203
C         0.35853713911589    4.43510128635151    0.91629593807098
C         0.46237682998479    3.08818177310217    1.19840869647806
C         2.96281560685751    0.95813945149890    2.04027518088638
C        -0.29030665132095   -1.95566511062465    4.72572744889050
H        -1.55282644734253    1.03840524111882    5.27668105678978
H        -2.46169186293644    0.07018940453878    4.12605632425835
H        -2.05119005715783    1.75213536033095    3.74124349421833
H         3.13134112255182   -1.60937280557076    4.34220838897708
H         3.30721589218945   -1.84144198719956    2.60419632607091
H         2.18607539775578   -2.85321461584596    3.52314472590331
H        -0.03223129168749    3.20746710192472    4.54165110186758
H        -0.22523874971700    5.59597632447166    4.03184258978090
H         1.68771796071407    6.79447520332447    0.28617747677538
H         1.52976353181198    9.18898702924658   -0.23203887422887
H        -0.22786230497416   10.57091195477986    0.81346695393280
H        -1.83229208164403    9.53652602938326    2.37674945748426
H        -1.68633111713538    7.13968627017096    2.88988524446123
H         0.45755704531448    4.77534629698258   -0.10355774365638
H         0.64032385183311    2.38159093491012    0.40135212094256
H         3.34386138965999    0.29731193113623    1.26451198265295
H         2.81920606738711    1.94754546826129    1.61557396415525
H         3.71245333977238    1.01583949243954    2.83018107674505
H        -1.37276411212432   -1.92347391069892    4.80765027340150
H         0.01291980496093   -2.93450873683838    4.36265177522965
H         0.13089399828589   -1.82148430970286    5.72267850174672
C         1.18186588676537   -8.09697880247744    2.38750770680706
O         0.35032807096201   -6.95623596927173    2.26096713797943
C         0.86302192633459   -5.82310827819110    1.74913141934487
C         2.19029280812955   -5.65742632525017    1.35159367895061
C         2.60026381042004   -4.43550143243624    0.83835092851485
Cl        4.24969093338831   -4.24457986484358    0.33471383365577
C         1.73267774457206   -3.36681878572508    0.71987964402672
C         0.40398781988311   -3.54197629756674    1.10842181155453
N        -0.48078303161854   -2.46344861657000    0.96519540387923
C        -1.61409153904614   -2.62727052868629    0.36153248229977
C        -2.44579033922573   -1.46968060465219    0.21631863659511
C        -3.65901500304032   -1.44609033684209   -0.47736923184533
C        -4.34854868173776   -0.25720545334745   -0.59370799044988
C        -3.79180615929840    0.88506342561900   -0.01830468812404
Br       -4.67904417913782    2.56208488059686   -0.13784755896297
C        -2.58271510948481    0.80051424120605    0.65979428590635
N        -1.93285715587865   -0.34883383888809    0.78433501313502
C        -0.03220564364867   -4.75658228086550    1.61753101202882
H         0.54362404901975   -8.87496421656631    2.80071088540031
H         1.56421314000007   -8.41709894108392    1.41512317804873
H         2.01412821667430   -7.90731681898469    3.06966448614308
H         2.90490586835383   -6.45846608691412    1.43344993991695
H         2.05015233942732   -2.42805818994569    0.29770576967046
H        -1.90407902700427   -3.58201186306566   -0.06142067063734
H        -4.03989674150440   -2.35273850420876   -0.91974690396640
H        -5.28870613924943   -0.20323739731496   -1.11961548358182
H        -2.13419995598877    1.67998460726721    1.09991154679115
H        -1.05082242934077   -4.89456042626343    1.94174778683222
Cl        0.74042677308224   -0.14670157721177   -0.56477914656651
