72
 energy: -111.301287573471 gnorm: 0.000881532147 xtb: 6.4.1 (afa7bdf)
Ir       -0.53013674884321   -0.38487476364240    1.47596130382572
C        -1.91908159011426    1.46453914438408    3.98585021711650
C        -0.71780407430808    0.79941482321097    3.40822923987783
C        -0.30900503832807   -0.55258314452282    3.68398232529057
C         0.99881047132032   -0.74465824415318    3.11297723522711
C         1.89645522739271   -1.89600439840021    3.40604184245751
C         1.33463138357996    0.42794429863803    2.37852688658402
C         0.26586527671990    1.40168799878312    2.57497730816442
C         0.37390477696973    2.83644818668769    2.26553571656958
C         0.34474044180628    3.75317270881734    3.31630116461753
C         0.50898049254425    5.10190716328515    3.07324084572766
C         0.70300666006379    5.57729382159677    1.77708533374356
C         0.89417130558023    7.01283959332283    1.52128973510916
C         1.83089513930043    7.44459613664549    0.58385562699404
C         2.01987134326729    8.79346336298601    0.34576905359886
C         1.27258501131250    9.73419467182346    1.03563671901839
C         0.33668388052381    9.31668875733364    1.96811854782771
C         0.15053306961397    7.96832251715015    2.21178342637996
C         0.71925309641725    4.65680638752132    0.72996843215775
C         0.55875722835665    3.30638676717612    0.96827408470997
C         2.65345747552426    0.74289931977244    1.76210598721715
C        -0.97341446849210   -1.46626542610050    4.65640096762342
H        -1.75431152389647    1.62839397913344    5.05103390644939
H        -2.80462985770201    0.83994669078060    3.88630725355455
H        -2.09140027017005    2.42872089533590    3.51448502006511
H         2.38741310849013   -1.71562647543213    4.36311605652425
H         2.66292811043578   -2.00705670696121    2.64548011999787
H         1.34162408653585   -2.82748376469027    3.48106150325911
H         0.22482447097963    3.40302956581954    4.33013880087145
H         0.51238119905670    5.79498764407605    3.90104987132926
H         2.43049130252218    6.71923261642040    0.05337829304948
H         2.75427958201904    9.11342532276583   -0.37945181678607
H         1.41901574699759   10.78774759660318    0.84758345974154
H        -0.25045071178293   10.04680372588546    2.50641090627982
H        -0.59237763143105    7.65385263246160    2.93031342092272
H         0.84332058931970    5.00565055992986   -0.28425600100973
H         0.55027356629962    2.61092772210326    0.14331226543201
H         3.19988062291330   -0.16243085524579    1.51355043174231
H         2.52789606720365    1.34056956620989    0.86315390257360
H         3.24516673000806    1.32358756056303    2.47064086047066
H        -2.05203525659006   -1.33728844575432    4.64417759833713
H        -0.73668932940331   -2.50480887865959    4.44344769537814
H        -0.61654936684183   -1.23797534930112    5.66148686392546
C        -5.14029940484668    2.84632165315675    0.86417305875936
O        -5.47531794657263    1.59868002008982    0.27297535538512
C        -4.60264531870997    0.60081393624735    0.28282122815423
C        -3.33209049759070    0.63106451874926    0.86416809613448
N        -2.50517480876563   -0.40900046344983    0.84386730981657
C        -2.88081438720370   -1.55160329560079    0.22505012389451
C        -1.86937672379581   -2.56271849748833    0.19892819674949
N        -0.72195639576369   -2.25765086305314    0.71390658430771
C         0.32462683175405   -3.18937236134598    0.70656263171483
C         1.58662173811007   -2.79321367570746    0.26494094474123
C         2.62106929575136   -3.70929805855391    0.23679975686820
C         2.41586822808981   -5.01101768519456    0.66989924345444
C         1.16425805934624   -5.40130993387704    1.12109864480328
C         0.11498638165963   -4.50080820550630    1.13303640024502
C        -4.13904418137220   -1.67738979101255   -0.37226139043240
C        -4.99845409836125   -0.60551370945014   -0.33923041786322
Br       -6.72526776339703   -0.68988613513634   -1.12571304892076
H        -6.00496472143192    3.48376772209139    0.69247193853569
H        -4.97422723845852    2.73525157770867    1.93751965040100
H        -4.26177723404787    3.28216049475639    0.38529166978104
H        -2.96927616252602    1.52466944084989    1.34834676160189
H        -2.04796828559351   -3.51824829000962   -0.28003125354735
H         1.72398793843936   -1.78203181022934   -0.08661784507540
H         3.59231645233543   -3.40786176971198   -0.12366141664307
H         3.22944413839970   -5.71924448632368    0.65522460591079
H         1.00266037352863   -6.41238540044589    1.46213892144192
H        -0.85753468874693   -4.79642664452927    1.49598333261806
H        -4.42003733346656   -2.59719649991342   -0.85870557777769
Cl       -0.10642484195776    0.28376492855940   -0.78251991703036
