60
 energy: -97.999027194202 gnorm: 0.000562830161 xtb: 6.4.1 (afa7bdf)
Ir       -0.88811661658473   -1.00623900181859    1.26088135895900
C        -2.17585046014331    1.35226927217291    3.39945581275973
C        -1.05231557085159    0.47526176063324    2.96359125148019
C        -0.79575729996349   -0.84924157742203    3.47924944781818
C        -1.59621091651726   -1.52475865249593    4.53945564115815
C         0.50737794204000   -1.25572701796244    3.02399340699178
C         1.25202390409056   -2.45092730111705    3.50691881300484
C         0.99936310130866   -0.24840281555894    2.14427187286815
C         2.36931851929718   -0.15704874428982    1.56401372281796
C         0.03555748755000    0.83939523011392    2.12520254676170
C         0.28521051505755    2.16139047624358    1.48728480164348
H        -1.90554938570036    1.81624058086785    4.34888005395367
H        -3.08862917702821    0.78318416545957    3.55596096346557
H        -2.36044827517346    2.14700825053768    2.68202536819101
H        -2.65840330483604   -1.33379724808125    4.41399336390492
H        -1.42719323556432   -2.59748901646427    4.53784368842324
H        -1.29675979685588   -1.13651332506680    5.51360457456420
H         0.58526592867744   -3.28770373183615    3.69672461979105
H         2.01247388893114   -2.76075471654554    2.79572349148221
H         1.74826579914281   -2.19580553863028    4.44400592866615
H         2.33465828524820    0.25837603560978    0.55968356651203
H         2.85214403303605   -1.12896109785008    1.52912695994599
H         2.97510918141904    0.50658322483828    2.18144364120167
H        -0.60313605750495    2.78528918661892    1.49705782441265
H         0.60953816635101    2.03343362440638    0.45645967953305
H         1.07976119864766    2.67635453225582    2.02785070202243
O         4.58917158703999   -5.80932970066388    0.14673650589143
N         3.55021167753197   -6.24927520013062    0.60551226584341
O         3.43163175393699   -7.37065698777840    1.06507057677285
C         2.39763037582124   -5.39639877784409    0.60354283640406
C         1.20480213418571   -5.85508658562549    1.15666174936350
C         0.09241725547309   -5.03957110707178    1.14207516790949
C         0.17375698044245   -3.76093851730551    0.58259124689541
N        -0.94185655011234   -2.91917928597655    0.56611714711267
C        -2.06338787919776   -3.32383918645837    0.05007418306038
C        -3.14324932831286   -2.39502187364423    0.04457108626792
C        -4.39326904860894   -2.62989633789115   -0.54184449264323
C        -5.33593647761013   -1.63123258581868   -0.54431648804642
C        -5.02243868143364   -0.38750724798675    0.03487137137734
C        -5.97541804705418    0.68741433681692    0.03974568013157
C        -5.90444385736193    1.98502049194655    0.51030952240984
C        -7.14966655125717    2.57570921003892    0.23348911811958
C        -7.89521707432814    1.60805597932018   -0.38278192810689
O        -7.20054586188197    0.47639770494417   -0.50313176980122
C        -3.75363051127225   -0.23553308647712    0.60929460822252
N        -2.85063690901309   -1.20056126234131    0.62626841878440
C         1.37818280381276   -3.30489188649585    0.03975765033972
C         2.48721119068162   -4.12335587116847    0.04294985563088
H         1.16921702771578   -6.84431867307029    1.58576539444085
H        -0.83543005716829   -5.37911050442921    1.57483504588954
H        -2.15893769934182   -4.30157507654653   -0.40785186975472
H        -4.59351520445524   -3.58788769083139   -0.99357756169024
H        -6.30617454220866   -1.78000096374408   -0.99044775695344
H        -5.07211207800852    2.45735975498337    0.98838568909525
H        -7.45541370725133    3.57643678642508    0.45761680093902
H        -8.89720152565336    1.61611904217648   -0.76483069694947
H        -3.47284182888202    0.70163969517364    1.06319459009128
H         1.41321003412640   -2.32268262833081   -0.40549042379456
H         3.42359836893168   -3.79972900875398   -0.38438944200654
Cl       -0.45262662334993   -0.34034951005007   -0.99212018358520
