70
 energy: -119.331316172556 gnorm: 0.000487894963 xtb: 6.4.1 (afa7bdf)
Ir       -0.38867212751228   -1.43527873564173    1.27385128233035
C        -2.03755629295246   -0.19770354127212    3.96340024875133
C        -0.74259960846792   -0.47825208615377    3.28308168159689
C         0.05946210004706   -1.63865869010485    3.50679549193408
C        -0.24286438782354   -2.67945905684216    4.52888524047631
C         1.28752584191883   -1.48151270811098    2.77108670091807
C         2.48910659663628   -2.36021109596930    2.87362299563381
C         1.27116046695759   -0.19020614924640    2.15130200292517
C         2.42940787733516    0.46413315269174    1.48858132700673
C        -0.00712481430519    0.41290488911835    2.41985867316498
C        -0.36581592780563    1.79907566983034    2.08754905175635
C        -0.74630018152543    2.68348820735210    3.09529967530981
C        -1.04427451888059    3.99207338277706    2.76321050487244
F        -1.40477896137022    4.84152245578986    3.74501020242332
C        -0.99148013335184    4.46338987684074    1.46299920502356
C        -0.61250547976754    3.55970764165832    0.48488680154884
F        -0.56582355343807    3.97701931776582   -0.79670323779364
C        -0.29797208633689    2.24422824020044    0.76734610890170
H        -2.55682963606603    0.63541970321863    3.49890533761523
H        -1.84520573519323    0.05401990161599    5.00713521601223
H        -2.68165711574369   -1.07383963820573    3.95256156169916
H         0.50442635787207   -3.46586976607718    4.52100677065124
H        -0.23293987727789   -2.20970549294137    5.51333373647231
H        -1.23087237090411   -3.11008321066457    4.38365681185903
H         3.00711501232268   -2.15642227054960    3.81139363211274
H         2.20987942535426   -3.41064360612250    2.85322002025053
H         3.17205601908602   -2.16918932705432    2.05106324311457
H         2.66572013791841   -0.02286607516785    0.54323776482231
H         2.21673930479603    1.51055898959568    1.28775067730551
H         3.30466043271025    0.39105177994278    2.13226522403767
H        -0.78301936440201    2.37591125509306    4.12704407501899
H        -1.22979544556820    5.48625778785402    1.22375941458087
H        -0.01814160383701    1.57273766292461   -0.02990420684393
C        -4.50385824459687    2.28195776403107    0.16529461173855
O        -4.79660192023964    1.15049238298402   -0.63823116581639
C        -4.03834000407894    0.06343549589531   -0.55607883329023
C        -2.94496289499313   -0.10255989499023    0.29429455149557
N        -2.22538173033905   -1.22085825532001    0.33782321547328
C        -2.55100642502195   -2.25554585839320   -0.47059915524509
C        -1.68274735021914   -3.38344740312223   -0.35821990705275
N        -0.70846434724298   -3.31011691829026    0.49673201087772
C         0.22642463534061   -4.34741409637554    0.55623794974105
C         0.52834634548562   -4.95435601866411    1.76777236030183
C         1.43032393050914   -6.00469906545251    1.81136494685597
C         2.06870492474222   -6.44677259296835    0.65998388803164
O         2.97053947248689   -7.44372143100483    0.60066523362799
C         3.34473770916188   -8.10487866547654    1.79453706870495
C         1.76883787797742   -5.81963001201366   -0.58237546331041
O         2.43974872141004   -6.30529311964839   -1.64956819578713
C         2.19975450062995   -5.73694328491055   -2.92135133004250
C         0.84150258842015   -4.79770782091766   -0.62084517239044
C        -3.63752147825060   -2.18039790439979   -1.34996796046970
C        -4.37750651516686   -1.02423781300842   -1.39428890329440
Br       -5.86115608614618   -0.83605887102469   -2.56417818678161
H        -5.24147754679839    3.03088368311204   -0.11423420807552
H        -3.50011918963718    2.66126303049917   -0.04000617734822
H        -4.60745258436193    2.04382105457843    1.22597198243162
H        -2.63873426128727    0.69516657363642    0.95285344077606
H        -1.83739306836743   -4.26758676344690   -0.96475165496114
H         0.00860746512802   -4.64896173607987    2.65929515877178
H         1.62846604419122   -6.48343098365404    2.75598961864090
H         3.80214519162102   -7.41117961369020    2.50489734503898
H         2.48876045805750   -8.60281744820180    2.25777827086387
H         4.07739933228329   -8.85098070474491    1.49370245871349
H         2.45333594091762   -4.67346695101620   -2.93642840931137
H         2.85222854041310   -6.27453063422050   -3.60624076913395
H         1.15920059013994   -5.87450907036832   -3.22789542115313
H         0.61461266192238   -4.29066977944084   -1.54425567688575
H        -3.87470690409896   -3.01493620172917   -1.98907879556444
Cl        0.47014026958804   -1.00090553628189   -0.89801196167628
