68
 energy: -104.062926446080 gnorm: 0.000585867657 xtb: 6.4.1 (afa7bdf)
Ir       -0.17984098640215   -0.48268711137126    1.65868861041483
C        -1.62185181348682    1.30615791004945    4.18390629719457
C        -0.40640475739842    0.66449490765409    3.61125711517086
C         0.01848490205718   -0.68617971534971    3.86653011903695
C         1.33409793053682   -0.85099794391500    3.30242320119417
C         2.24740423234035   -1.99396639084848    3.58105117143112
C         1.66355595317349    0.34350256791904    2.60004064239825
C         0.57584090996933    1.29374894344520    2.79635172850163
C         0.65787620672357    2.73572477942916    2.51002978370916
C         0.64508160237046    3.63059173351713    3.57941149559492
C         0.78469835620763    4.98572345745904    3.35872464097608
C         0.93513192066279    5.48876503126981    2.06722718884329
C         1.11320943885113    6.93068229794922    1.83913752170893
C         2.03324292729841    7.38726337795559    0.89705481354691
C         2.21952380427928    8.74205381061569    0.69288426470739
C         1.48536373621936    9.66387956877739    1.42132585835574
C         0.56355569475707    9.22146671124116    2.35624315325102
C         0.38058695785810    7.86693947174419    2.56636050579852
C         0.92939740234051    4.59026982465135    1.00144422780262
C         0.79541671962921    3.23299875804230    1.21765918932154
C         2.98587678594383    0.68902519884386    2.01053336215688
C        -0.64294518518300   -1.62677916623911    4.81462560182141
H        -1.47587994199162    1.44577342385877    5.25540811127231
H        -2.50390159716211    0.68223442926890    4.05443709435696
H        -1.79462891555134    2.28011435694087    3.73324596321138
H         2.73434373228566   -1.82179633036711    4.54161464893099
H         3.01695567847097   -2.08116227474193    2.82057266761737
H         1.70585643326306   -2.93422687035239    3.64057913398832
H         0.55567781556280    3.25862302437695    4.58875097177072
H         0.80256758141017    5.66274925269829    4.19959485456058
H         2.62234352374419    6.67612895372315    0.33644107787793
H         2.94219029221342    9.08137737214078   -0.03534767280711
H         1.63171455822972   10.72210029347830    1.26160986497717
H        -0.01435153426015    9.93671554803956    2.92374675265772
H        -0.35124896305653    7.53265222184822    3.28733527187031
H         1.01807435223879    4.96110825008681   -0.00872933542731
H         0.77681752557995    2.55358453545141    0.37959801360743
H         3.51493921359616   -0.19829492851748    1.67465025350080
H         2.86992347570919    1.37320274071177    1.17430317815227
H         3.58990345295454    1.18544843856885    2.77116835060893
H        -1.72273266370555   -1.50817466149571    4.79748819064165
H        -0.39260584269505   -2.65833598649233    4.58376204535554
H        -0.29572229313197   -1.41392000455343    5.82652572254383
Br       -5.26992612070034    2.14932282120804    0.44880592752184
C        -4.18134331531331    0.59004988456188    0.39248509800539
C        -4.63305584234082   -0.57315488528357   -0.23118313692392
C        -3.79684010740383   -1.66956297520383   -0.24765853961465
C        -2.54251859740771   -1.58386717256124    0.36311133058118
C        -1.55842747899496   -2.62273589701949    0.36037962358557
N        -0.41039905935433   -2.34292153405861    0.89302595110130
C         0.61233548425284   -3.30050668284394    0.90105407797160
C         0.36562950718405   -4.60609222119149    1.32756058898987
C         1.39311855789912   -5.53111601990204    1.32953711165691
C         2.65861080344608   -5.17272494212284    0.88930824940179
C         2.90027168495288   -3.87742263443013    0.45527148709637
C         1.88849439295680   -2.93599056361553    0.47174208826364
N        -2.13338425043569   -0.44860815703797    0.98478983556189
C        -2.92721735474704    0.61390388709329    0.98738210497650
H        -5.60744552544975   -0.60540504740854   -0.69199635630183
H        -4.09591763260099   -2.58559460363952   -0.73150751715729
H        -1.74988042266544   -3.57704791373340   -0.11592043061854
H        -0.61737308262891   -4.87734447950911    1.68124872354212
H         1.20448373134540   -6.53684489269557    1.67167007671744
H         3.45467586002541   -5.90069936138641    0.88572512019459
H         3.88158275975592   -3.60061948658038    0.10207094290279
H         2.05330930858148   -1.92970603528440    0.11728088749328
H        -2.56170976078656    1.50926462609564    1.46830783864347
Cl        0.31903483801146    0.18745547903445   -0.58251973579876
