57
 energy: -87.053294121797 gnorm: 0.000512882606 xtb: 6.4.1 (afa7bdf)
Ir       -0.70439066047221   -0.86028986815450    1.28713552834235
C        -2.03265996820026    1.30744010999976    3.66098533355179
C        -0.89248369163613    0.51590525513603    3.11926255797392
C        -0.60318487036876   -0.84527479884352    3.50581292294330
C        -1.37863921618114   -1.62663225984570    4.51151779039497
C         0.71458535713384   -1.17280181865558    3.02409300591237
C         1.51248289845737   -2.35783008261002    3.44269076835690
C         1.16558495723046   -0.08801821859022    2.22399999683539
C         2.51668107463144    0.08288345196307    1.62041157193167
C         0.16778847729870    0.96895275738001    2.29268590328059
C         0.39977225132767    2.34904481850815    1.77523915535057
H        -1.84709672172639    1.49907433002237    4.71847815726363
H        -2.96950477135314    0.76151606702912    3.58197383368612
H        -2.13999453361071    2.26047231187382    3.15365620309834
H        -2.44212156993032   -1.41785745115647    4.43425131384202
H        -1.21711451703390   -2.69420657460239    4.39036801698420
H        -1.05036604507943   -1.34724766149817    5.51342233798526
H         0.88021041539293   -3.22021068772820    3.63477378039536
H         2.25394915264634   -2.62498427349833    2.69520197710663
H         2.03686434241846   -2.11023453635916    4.36664381730834
H         2.43871468727802    0.52132170026065    0.62786195915889
H         3.03991683288412   -0.86582742177936    1.54780966139466
H         3.10631645156122    0.75791043206015    2.24125113771609
H        -0.46230522314831    2.98969818307645    1.93647019196081
H         0.63135720374955    2.32809445866386    0.71138430282776
H         1.25497616469124    2.78396813601466    2.29237873274074
Br        3.97328185345359   -6.51378420125107    0.69223891217345
C         2.45062032342439   -5.34324972860638    0.69438194763049
C         1.26192028301789   -5.76937368961870    1.26989534841637
C         0.16513657083519   -4.92952951914477    1.26609917239778
C         0.25971730605366   -3.65595662218020    0.70179503000047
N        -0.83598730707658   -2.78564908017180    0.69068955595643
C        -2.00721584939916   -3.21287051481801    0.33283894363419
C        -3.05608978997648   -2.24408549623817    0.27257171168289
C        -4.36715482437411   -2.55584400698856   -0.14030040107598
C        -5.28922161079509   -1.55355922007459   -0.23966996125751
C        -4.88966932385169   -0.22006821532240   -0.00379900481358
C        -5.76686876316523    0.86970415120405   -0.16914479239671
C        -5.32611058032288    2.15420794080853    0.00447972341077
C        -3.98401100511060    2.39869677212964    0.33654637276384
C        -3.11245280624382    1.36144988279420    0.53240664721299
C        -3.54056941652911    0.02846124199598    0.38911538133471
N        -2.67423838352969   -0.99596939799578    0.58965618040069
C         1.46612711643904   -3.23469112178227    0.14075294333375
C         2.55731430434893   -4.08087072372058    0.12621536016819
H         1.19598820785778   -6.74819068032523    1.71694446233448
H        -0.75689528828771   -5.24984482593446    1.72620097383220
H        -2.17109304479719   -4.23521192894578    0.01274009787141
H        -4.61577821665086   -3.58033284747933   -0.36306559428194
H        -6.31001603532952   -1.75768262120229   -0.52367148344381
H        -6.78851718164493    0.66943948728512   -0.45315648493928
H        -6.00055927955615    2.98516048852826   -0.13102670966474
H        -3.64052274104307    3.41726223764423    0.42868828818625
H        -2.07118448860520    1.54122694485976    0.74391701678801
H         1.52397752760788   -2.25520069021331   -0.30857590557264
H         3.48490954565826   -3.76452040491501   -0.32276645686635
Cl       -0.12569758036972   -0.18968896898475   -0.93234423355823
