89
 energy: -138.256245010203 gnorm: 0.000432854296 xtb: 6.4.1 (afa7bdf)
Ir       -0.58039219921633   -0.59187658801748    1.55011693740049
C        -1.85739873487286    1.11392615341891    4.21635294520242
C        -0.67525229753418    0.50880429107132    3.54056582941851
C        -0.22944873675250   -0.84335736812050    3.72668440545595
C         1.04767167671654   -0.98179801831058    3.07037917607549
C         2.00298548976348   -2.11026332393365    3.24935346337278
C         1.33647647853632    0.23778155399722    2.40269024136846
C         0.25968535454772    1.17114202153894    2.68484073355363
C         0.32672353337556    2.61530262430506    2.41400336070704
C         0.26520516531979    3.51798981385852    3.47475550296351
C         0.39065876812171    4.87374105906777    3.24755809858495
C         0.57820980547349    5.37115048852333    1.95864591553017
C         0.73023049718707    6.81482382000567    1.72391316094262
C         1.66116092165660    7.28723159044658    0.80037283512584
C         1.81620730090390    8.64464789335391    0.58758545691129
C         1.04000532174357    9.55330355656315    1.28859624811538
C         0.10801303310463    9.09513673304841    2.20560131056912
C        -0.04383293091430    7.73822740380870    2.42444014780026
C         0.62812595489441    4.46468974450146    0.90033097603983
C         0.50702733305821    3.10766595781415    1.12202630892111
C         2.63238598132807    0.57512118783159    1.75187479968040
C        -0.82372283523229   -1.82272169577387    4.68173223255844
H        -1.63907031306758    1.22185551419537    5.27932449248954
H        -2.73429308605856    0.47692965071197    4.12426622927055
H        -2.08602849457636    2.09219562465541    3.80426298386874
H         2.61193293658618   -1.91060767955812    4.13216021670424
H         2.66869120360319   -2.19855987423080    2.39524817719003
H         1.48839316119674   -3.05528833013787    3.39860208700742
H         0.15221467166759    3.15334843725565    4.48379256359811
H         0.37074093657634    5.55616117558240    4.08381373711751
H         2.28338381496871    6.58752769435351    0.26147136462884
H         2.54708338101287    8.99616793337863   -0.12651488080010
H         1.16149136694521   10.61335293459868    1.12054212776697
H        -0.50229739363018    9.79977743045010    2.75189697891072
H        -0.78299976768702    7.39089259717800    3.13137667312000
H         0.74904836194257    4.82786464810843   -0.10902818809128
H         0.52808766770055    2.42253890385932    0.28719829580774
H         2.91388067992399   -0.17414288070174    1.01499789173643
H         2.58023219774210    1.54285123337661    1.26173787145979
H         3.41406520320910    0.60887773033619    2.51166261626528
H        -1.90361210563126   -1.71523849446837    4.73239709043821
H        -0.57892517864221   -2.84296975225997    4.39924263461690
H        -0.41822028411931   -1.64136864453329    5.67782767891714
C        -7.67993705674600    5.34181770450907    0.47247558054156
C        -7.18528377224783    3.90470841804658    0.43655389648998
O        -5.78623867606319    3.91994135622970    0.70176026885159
C        -5.09950890789703    2.77517930942278    0.72918369746566
C        -3.71155016021375    2.90801885605547    1.00234403664984
C        -2.90006944575950    1.81945981626090    1.08575527355171
C        -3.40694297813344    0.51679602316563    0.88446929158693
N        -2.59871675551177   -0.56086414335462    0.97146115698401
C        -3.08053143667323   -1.76954539095602    0.62905043875655
C        -2.10686717413743   -2.81204157531127    0.59776801719864
N        -0.89030116463820   -2.49799691258200    0.91522463668078
C         0.11757928261759   -3.46579558479605    0.85651621819873
C        -0.07566096258842   -4.73613193507154    1.41775314683850
C         0.91863722073842   -5.68123733094902    1.33905452129906
C         2.13250981250192   -5.40563814287963    0.69434928055406
C         3.20722555374513   -6.36209970708352    0.55197414169866
C         3.06097571635932   -7.74138625041588    1.09637379289878
C         4.33067775828226   -5.96457630012128   -0.09051575667467
C         4.50400790406679   -4.63423410712246   -0.63060771999523
O         5.49460131070821   -4.23138213515075   -1.20115962096301
O         3.46155587183340   -3.76098918235085   -0.47712507367532
C         2.31836210485340   -4.12279048149773    0.14842303436619
C         1.31993233500781   -3.15715880801589    0.23803367450773
C        -4.43123749513979   -1.97531460036581    0.28259254005004
C        -5.28814846491331   -0.91366628835623    0.27755702335029
C        -4.79198619250956    0.37989739242946    0.55710782509934
C        -5.61662868530846    1.51315964079370    0.50640361601199
H        -8.74893139255699    5.36458242666483    0.28323987583335
H        -7.48118548162347    5.78169117494226    1.44567098096579
H        -7.17240148675568    5.93154790097876   -0.28583437783120
H        -7.36926906953231    3.46342668484236   -0.55053222087269
H        -7.69657445894622    3.30549249526645    1.19998273392907
H        -3.32132268489312    3.90381537184988    1.13611699046365
H        -1.84395815859032    1.94374417189714    1.25759900853330
H        -2.36754551473851   -3.80587210564676    0.25207833712565
H        -0.99913790205083   -4.95851736818037    1.92903724187783
H         0.76197196284145   -6.65270133600300    1.77786463788144
H         3.95024534853537   -8.32775279969635    0.88589927057103
H         2.90990801746162   -7.70880404350348    2.17378531233403
H         2.20164526167944   -8.23481976400873    0.64597737082239
H         5.16855666551539   -6.62789320727395   -0.23536073959603
H         1.47186380024515   -2.18720596156667   -0.20871230355670
H        -4.76067236038197   -2.97036726617283    0.03307415088240
H        -6.33264628362766   -1.04081607432428    0.03926591021829
H        -6.65819651868202    1.36709460272060    0.27021230760217
Cl       -0.11685012702853   -0.00637829448267   -0.71731115384547
