67
 energy: -116.263515137053 gnorm: 0.000808139394 xtb: 6.4.1 (afa7bdf)
Ir       -0.66304103146644   -0.89161485984386    1.45901583455361
C        -1.67088390129054    0.82207920511606    4.24733789055440
C        -0.56933108413517    0.19407871867270    3.47310467592101
C        -0.14955555646300   -1.16994020745507    3.62166581557680
C        -0.69794734593358   -2.13934671968931    4.61090421365748
C         1.04797007751654   -1.35296522520357    2.84753633239501
C         1.98979552692545   -2.50023595588370    2.95002009478352
C         1.32465963001246   -0.12919719857051    2.16058749498985
C         2.56837857923528    0.15558490026298    1.39559562142763
C         0.31372418322155    0.83397241733783    2.54397288286615
C         0.41395845163874    2.27366317293417    2.26932705067255
C         0.38006852504481    3.18324347635449    3.32415040519092
C         0.53117515014992    4.53036205597004    3.05501964855682
F         0.50309599600961    5.40194362135086    4.08385297024820
C         0.71165304357256    5.02072337154983    1.77434317455550
C         0.74136880589957    4.09129135674331    0.74914240580155
F         0.90186686772474    4.53335196709541   -0.51634850235064
C         0.60280732456694    2.73458554908954    0.96711247668041
H        -1.95236358768906    1.78262313660305    3.82780453402780
H        -1.33900204595314    0.96719582955678    5.27646400186063
H        -2.54564449394996    0.17678973786612    4.27800240848849
H        -0.50203456003985   -3.16309258885262    4.30411679622493
H        -0.21417208608113   -1.97643526977015    5.57448218236879
H        -1.76727184325959   -2.00335764968526    4.74508389175335
H         2.68367372012780   -2.29674503825717    3.76707644746951
H         1.47311096849401   -3.42981979192896    3.16881847289404
H         2.56374140658725   -2.61802901566287    2.03623579722048
H         2.55527385755156   -0.33572856870203    0.42407644569931
H         2.68101614387966    1.22368670555802    1.23227543348795
H         3.42865088015352   -0.21746529749220    1.94843232337898
H         0.26508238431923    2.85825883516557    4.34432053378988
H         0.82426074634981    6.07492926158786    1.58383916325105
H         0.60792980591091    2.05136959294612    0.13199116349419
C         3.92134578778411   -5.58816729160372   -0.65281245809343
O         2.95658027092378   -4.55485222067996   -0.54681014940988
C         1.84704533041838   -4.76072271924586    0.17983757385467
C         1.56545111905718   -5.92627158084189    0.89525116755403
C         0.38256233357767   -6.01893661086088    1.61360291987105
Cl        0.04890667528109   -7.47038695082936    2.50677231394551
C        -0.54042436076880   -4.98887567423511    1.63500044082994
C        -0.24729719507472   -3.82224724417482    0.92491253468875
N        -1.16364962944593   -2.75691248953623    0.90727989681638
C        -2.39593954092223   -2.99688765321748    0.58403995624601
C        -3.27872639166902   -1.87713887678177    0.49520496693631
C        -4.56541685047336   -1.94951904344936   -0.04313321781830
C        -5.29491314426944   -0.78822985818567   -0.18077796515205
C        -4.70707600421200    0.42625708619294    0.19056856287176
C        -5.47670159134613    1.60957116408518    0.11051086594181
N        -6.13947451239221    2.54298116800353    0.04766794014574
C        -3.39428164902531    0.43439988914235    0.69373587267808
S        -2.56032061277611    1.92197031381744    1.13024354406974
C        -2.66273045049512    2.86197252567266   -0.42094589340128
N        -2.72216086839848   -0.70183282650341    0.88218223955403
C         0.93488937650164   -3.70076976771762    0.21208914350739
H         3.49254882132627   -6.48486905726942   -1.10640408916920
H         4.34847968211957   -5.83186667517750    0.32301340907663
H         4.69916759854026   -5.19069907391526   -1.30149251187883
H         2.24849155164109   -6.75847955699691    0.90149916771443
H        -1.44922540490849   -5.07584222341256    2.20637835016626
H        -2.72780575881941   -3.99172747529317    0.31231409414499
H        -4.96649564424686   -2.90189711491899   -0.34790248070269
H        -6.30278252350540   -0.79802543028461   -0.56653946725651
H        -3.67911044620190    3.18109052368678   -0.62123310924003
H        -2.02734917005211    3.72862522136614   -0.26896478126022
H        -2.26449156227302    2.24869723992516   -1.22308253519993
H         1.14276020698280   -2.80679728855518   -0.35372271654002
Cl       -0.29498098150493   -0.32490395299449   -0.81062066700428
