66
 energy: -98.154864350979 gnorm: 0.000205854934 xtb: 6.4.1 (afa7bdf)
Ir       -0.22909861006466   -1.05546209503976    1.54777104125414
C        -2.25470247795890    0.28949296814531    3.92373932151483
C        -0.88390088272374   -0.11787100528338    3.50763929897353
C        -0.28388589852854   -1.39135099609394    3.76661341729522
C        -0.90691494751818   -2.48382070374142    4.56654651293416
C         1.09940204196200   -1.32254243358900    3.35877641280312
C         2.16893603426399   -2.30235713516055    3.70814216685279
C         1.33166415012132   -0.03624686488732    2.79862846787057
C         2.66306888774953    0.51107832837744    2.42413559969727
C         0.08763418608703    0.70617838819765    2.85357497609056
C        -0.02974281639121    2.15129546170634    2.59906834796787
C        -0.38859049532735    3.00014068133603    3.64461591829836
C        -0.44256117854775    4.36160919924710    3.41443717725172
F        -0.78064472586614    5.17759933773396    4.43466399600420
C        -0.16248781941249    4.92146683472486    2.18050991599079
C         0.18351342068237    4.05063296490299    1.16178543664545
F         0.45898774796843    4.56086538632472   -0.05624882112063
C         0.25792903080154    2.68298026475956    1.34420199457860
H        -2.53172530956762    1.24323546508011    3.48344628498321
H        -2.28088451384502    0.39042244939563    5.00918292604671
H        -2.99341518820466   -0.45985600209166    3.64767724569731
H        -0.51518650787971   -3.45768340106537    4.28684213115749
H        -0.68454439395045   -2.32140246925942    5.62188549311677
H        -1.98625026876032   -2.48996028050919    4.44599696210721
H         2.69158673173582   -1.94507963585662    4.59638424202088
H         1.75711677561869   -3.28103175454501    3.93509180711539
H         2.89987318310464   -2.39156556760280    2.90898473395882
H         3.18334938417320   -0.15385860167210    1.73829634861478
H         2.56697718530983    1.48610606072941    1.95548760146791
H         3.27299710879530    0.61020238573756    3.32276102416178
H        -0.59775706233196    2.61823594366858    4.63033555127092
H        -0.20819253472652    5.98582390912369    2.02129306834165
H         0.52124752729862    2.04130224013702    0.51732627493726
C         6.79203697036461   -4.63445869118161   -0.74454354743909
C         5.50460748881965   -5.08455253576575   -0.06250875884017
C         4.36437698537330   -4.09577044986169   -0.29907608477585
C         3.07175838706550   -4.52880254082736    0.39124183424354
C         1.95260302571591   -3.52004482635269    0.14667682804224
C         0.65747757929089   -3.92629039874498    0.86502637044948
N        -0.34523368144767   -2.90440217403541    0.70298457080850
C        -1.31452820509351   -3.09083938437118   -0.12404715184864
C        -2.24927242002414   -2.01170171685474   -0.29529575981356
C        -3.32984852025526   -2.02446928458119   -1.17546892015296
C        -4.13431724943912   -0.90255101888635   -1.26356962626746
C        -3.82995966582514    0.20241026161527   -0.47636956428649
C        -2.74043110605212    0.14626074973850    0.37582066595719
N        -1.97312821413256   -0.93439563188351    0.47804714884996
H         7.59052882095077   -5.35108181302086   -0.56588264170967
H         7.11032468756757   -3.66605917269933   -0.36380704515516
H         6.64619988566470   -4.54674590637797   -1.81930076483676
H         5.21932061015791   -6.06715864858913   -0.44501483278360
H         5.68315863080138   -5.18628303809672    1.01045211023028
H         4.18971842165844   -4.00165874467450   -1.37298806110532
H         4.66384159574824   -3.11239952329702    0.07008139558620
H         3.25479304557423   -4.62983227504391    1.46269335746557
H         2.77438225911977   -5.50833695519471    0.01230403847684
H         1.75593110992308   -3.43983834144048   -0.92322307905506
H         2.25997807583696   -2.53246747078199    0.49398485837402
H         0.86348460639543   -4.04663856617401    1.92943070376818
H         0.29865062723414   -4.87685642592552    0.45974711189520
H        -1.42751168731768   -4.01411044906764   -0.68217026616366
H        -3.51738356395488   -2.89910412087316   -1.77717067011218
H        -4.97779058874275   -0.88265453781344   -1.93546770956193
H        -4.42685453763454    1.09861488305675   -0.51955541001073
H        -2.47448005601473    0.99346345706369    0.99022721094675
Cl        0.73302191870566   -0.32251503192008   -0.50856118671572
