90
 energy: -133.877971454772 gnorm: 0.000415342604 xtb: 6.4.1 (afa7bdf)
Ir       -0.53120215733884   -0.40274678334847    1.63617059385437
C        -1.94499666732408    1.89606189281015    3.84394563000769
C        -0.87046427518528    0.93543638241568    3.46539833051292
C        -0.94273020504582   -0.47341405956205    3.81411420860472
C        -2.08126173371820   -1.10549254013432    4.54315370751375
C         0.35313446696345   -1.04181865344673    3.63304894744128
C         0.80297133726184   -2.37440274667277    4.11956067254795
C         1.17236024040279   -0.05047967059144    3.00569539100136
C         2.63714081078058   -0.17631772469507    2.75200329501848
C         0.42892512672180    1.20248925766750    2.97179480023490
C         1.09035123121791    2.52833836233570    2.71766314005242
C         0.42060998169913    3.38005015431093    1.63743389929322
C         1.20927715522568    4.66626377294995    1.41386812784292
C         1.32746202256919    5.45782713026882    2.71370941629531
C         1.98184837147797    4.60778603554692    3.79939591282179
C         1.18638846681460    3.32598000409612    4.02846088495370
H        -2.92737150172619    1.45264972641611    3.70583100098546
H        -1.89319911884367    2.81692226233445    3.27399704004781
H        -1.83619677640123    2.13472970457952    4.90319245559720
H        -2.02677130558719   -2.18903987748243    4.49084010982460
H        -2.04532058157130   -0.81208524214013    5.59271203657411
H        -3.03699154493967   -0.78257435078261    4.13801731354869
H        -0.01075699484345   -3.09404245564409    4.13282462736271
H         1.61371163693910   -2.77120786166638    3.51505234116429
H         1.16920571896856   -2.25906931940413    5.14055231379787
H         2.93394009334187   -1.21914588181046    2.68938342957433
H         2.91487948076412    0.31864541942632    1.82445666776006
H         3.18830288255782    0.29218417431662    3.56804434502760
H         2.11073005530492    2.32777812787912    2.37735801779311
H        -0.59685162025575    3.63944086270351    1.92975758993914
H         0.37158329176655    2.80776242453673    0.71095620351423
H         0.70857016858103    5.26984359518370    0.65430174819886
H         2.20826334053409    4.42593669558403    1.04313296163027
H         0.33198827661364    5.76559383426162    3.04377505104107
H         1.91577448861698    6.36261085307050    2.54697755909112
H         2.03934959754452    5.17439511976698    4.73098125073920
H         3.00180217818943    4.35933737968356    3.49750300332576
H         0.18700616853715    3.58452439120478    4.37798235327567
H         1.66955762459784    2.72001020143522    4.79747086663135
C        -1.39353351775554    7.76076003393349   -1.08992296168659
O        -1.61402160451634    6.37652086348988   -0.83706017911957
C        -2.54919431715156    6.06761807243148    0.06467775816732
O        -3.18740812422134    6.89796908781972    0.67493328695424
C        -2.71768091481517    4.60194110207322    0.23261750406975
C        -3.63963044906188    4.14171529024733    1.17253966148920
C        -3.85238199393686    2.78790346958827    1.33324772027296
C        -3.12231728853813    1.86870100634152    0.57879905990376
C        -3.45108170661766    0.43297594927844    0.60256622211793
C        -4.78104631386412    0.08893153335974    0.34141720727029
C        -5.13480734877856   -1.23377941084746    0.14134083891939
C        -4.13505033870547   -2.18910292765437    0.17017047420925
C        -2.83772508304316   -1.79313716206985    0.48925458847272
C        -1.74466161499147   -2.71771742071792    0.52999048566635
N        -0.58567930675602   -2.28572521231692    0.91351222754590
C         0.49871372405257   -3.16197659015848    0.97431641768141
C         1.77780936550369   -2.71156024936272    0.56783724214571
C         2.84642114063740   -3.55518932733385    0.60182762430539
C         2.71650697145949   -4.88782618986436    1.06367412085680
C         3.80015986493556   -5.77109273339260    1.11026606218582
C         3.64627122976527   -7.07038511811679    1.56145342141557
O         4.75642685566454   -7.84178314489803    1.55368179219758
C         4.67719803462148   -9.18266476380870    1.99720082366235
C         2.37477488735060   -7.50778740495117    1.99542842824115
C         1.30557467939260   -6.65828781482324    1.96539835882715
C         1.43493241238855   -5.33342411508929    1.49614510318803
C         0.34229223764558   -4.45555317137651    1.43622250668840
N        -2.50624556238872   -0.50234555335899    0.75047285217250
C        -2.20099472448920    2.33016094203738   -0.35892602790754
C        -2.00338223913790    3.68651877052110   -0.53537976936439
H        -1.20350725920012    8.29121218744293   -0.15504023270116
H        -2.26952868868774    8.19923220097943   -1.57153614983713
H        -0.52985442186781    7.81152851749646   -1.74711718802038
H        -4.18835469083763    4.86488889123988    1.75626745751356
H        -4.58235469372679    2.44341031186602    2.04995289155831
H        -5.51333525833734    0.87637454551878    0.26440105604369
H        -6.15832268576561   -1.50540789882457   -0.06258224469384
H        -4.34054885975668   -3.22649294943361   -0.03632595781482
H        -1.88685446760554   -3.73791077037349    0.19333873669567
H         1.87278771382154   -1.70536179340031    0.19380728058261
H         3.81604268626349   -3.21695522562885    0.27027189996912
H         4.77666781262032   -5.44837113591499    0.78520820883025
H         4.37536889160305   -9.23808411989446    3.04681895669694
H         3.98838586001066   -9.76672742629273    1.38052115202705
H         5.68387713151237   -9.58191728908373    1.88993480212032
H         2.24137777054568   -8.51636217974477    2.35220468302408
H         0.33789165825925   -7.00294296745865    2.29762114592613
H        -0.61803450935611   -4.79703907822631    1.79363154304408
H        -1.65886988318560    1.62466916160820   -0.96702765518544
H        -1.29995603832602    4.03981544166786   -1.27149593981528
Cl        0.41926224615674    0.28080016817946   -0.43241054106393
