79
 energy: -111.834701047925 gnorm: 0.000180647212 xtb: 6.4.1 (afa7bdf)
Ir       -0.41420814854163   -0.78483725751667    1.50282887756420
C        -2.23004483616315    1.33178131170248    3.67973555050153
C        -1.02911134999970    0.51961572218090    3.32733936814306
C        -0.94221054197125   -0.88426475950866    3.67549479920879
C        -2.01799667974075   -1.65104467833832    4.36606737739320
C         0.42110544455533   -1.29065501195210    3.55380512926719
C         0.98979426553726   -2.53604099863277    4.14163378485333
C         1.13985084937792   -0.20952844322941    2.95002559788001
C         2.61997959630272   -0.14826342425501    2.75918382978905
C         0.24384591633618    0.94131228406978    2.87307976305164
C         0.75450701115355    2.33534212741052    2.62965104474101
C        -0.02753412086783    3.17916932567929    1.61810917965629
C         0.66561079984693    4.52611803532234    1.42730421521418
C         0.76655008341315    5.27147740244892    2.75581694648331
C         1.51918672357799    4.43020920492036    3.78302093135911
C         0.83906024434177    3.07775895003008    3.97515923069680
H        -3.14202832162052    0.87876070212355    3.29623797246242
H        -2.16455417495065    2.34885992247069    3.31232568441842
H        -2.30879675161332    1.36329129343376    4.76748300272550
H        -1.85782103970830   -2.72138599556516    4.27514112451809
H        -2.01556991036917   -1.39613851214657    5.42665471913422
H        -2.99705591471223   -1.40420583340946    3.96435931241048
H         0.37247305237109   -3.40588175180099    3.92939089936044
H         2.00700035820172   -2.71575699159275    3.80615730598734
H         1.01689904892792   -2.41095091339934    5.22538943750885
H         3.05066709626165   -1.14346178086798    2.70196173759617
H         2.87267482666232    0.38625177290079    1.84653488153355
H         3.07556443651087    0.37649134689675    3.59925330453455
H         1.77198208163297    2.24696147117673    2.23750595710133
H        -1.04462926879171    3.36320486607365    1.96511830929048
H        -0.07065868063228    2.65326182281118    0.66334906523942
H         0.10828159606204    5.12657375187819    0.70529572079968
H         1.66750534998924    4.36849027922634    1.02150630678965
H        -0.23692281302280    5.49045310520366    3.12913333047737
H         1.27941892353122    6.22426762419290    2.60938320675842
H         1.55993188207661    4.95756616504959    4.73832107634673
H         2.54612402757974    4.27953203916710    3.44207513562048
H        -0.16316010434139    3.23065802914564    4.37700657897926
H         1.40211165819323    2.47898730762465    4.69358689793228
Cl       -6.51973492263458    2.84086789294821   -0.47450881257890
C        -5.25782212961661    1.67504610836632   -0.25647144136391
C        -4.06038891497445    2.07426683438543    0.36317681272847
C        -3.05916412272203    1.16635361029585    0.56761112522972
C        -3.19715976031025   -0.17226018548925    0.15353599100050
N        -2.20407389943208   -1.06422719334685    0.38100401431935
C        -2.27841930672391   -2.27424378649956   -0.18945805920639
C        -1.10501942327149   -3.07927442149593   -0.02578607098127
N        -0.12401137644567   -2.59533991231989    0.65711937480996
C         1.09928548156597   -3.35355654500285    0.74659547178170
C         2.21776592205093   -2.73364163776869   -0.10310494559618
C         1.96259321556031   -2.88085578170602   -1.60602202046247
C         3.15057961761531   -2.36592458241266   -2.37140488788626
C         4.12727653180801   -3.23349245615971   -2.84221109060894
C         5.23696715891597   -2.74884721774856   -3.51354572135229
C         5.38527513926299   -1.38714388134609   -3.71595916799214
C         4.41765380980424   -0.51386635685782   -3.24610733558132
C         3.30856151467329   -1.00074581980867   -2.57777908432909
C        -3.40534414407303   -2.70513151137530   -0.91832456082504
C        -4.47187113022274   -1.86396734444707   -1.05565097443925
C        -4.38513270560067   -0.55189803853547   -0.53785314119814
C        -5.41624028195336    0.38996269607167   -0.70898879002837
H        -3.94280491534745    3.10183687920310    0.66586858809423
H        -2.12072177803737    1.46950042342716    1.00125019908786
H        -1.04464048568896   -4.05305159243259   -0.49956229004419
H         1.42284881788962   -3.36749847041470    1.78654950635446
H         0.92268414996044   -4.38202154478312    0.41616033261625
H         2.31331332455125   -1.67482018202206    0.13550032261941
H         3.15274592260652   -3.23294257437095    0.15369606742000
H         1.07743588130152   -2.30372701864711   -1.87826001949729
H         1.79466699754525   -3.93043419340013   -1.85447151217364
H         4.01975923417934   -4.29825352739739   -2.68940630846550
H         5.98846610733793   -3.43416511027999   -3.87942011514330
H         6.25125754072791   -1.00799966381610   -4.23977660287025
H         4.52996780750061    0.54943581402236   -3.40348466228663
H         2.55424972351865   -0.31890385225007   -2.21323875581308
H        -3.40836835688696   -3.69568860934277   -1.34255690044840
H        -5.36643735616082   -2.17152107659282   -1.57431702454361
H        -6.31980937007704    0.09305426959554   -1.21697110185188
Cl        0.39088286685145    0.24035904862179   -0.47652600176963
