87
 energy: -124.719991866831 gnorm: 0.000528593519 xtb: 6.4.1 (afa7bdf)
Ir       -0.66758810389678   -0.15237347225808    1.85047582583339
C        -1.34303657740412    2.44254721071916    4.11272202333493
C        -0.55482640871660    1.26705857720827    3.64018882018828
C        -0.89792113097311   -0.08541229056540    4.05205355839864
C        -2.08092055588303   -0.43258389361524    4.88989123833545
C         0.20786052295747   -0.93304159552942    3.76613470914222
C         0.38161645328772   -2.33426077505905    4.23761850219721
C         1.17793173267405   -0.15012389825371    3.05127637722828
C         2.55503352221510   -0.60328919443263    2.70247905169091
C         0.73182903586464    1.23168928621457    3.04333920026556
C         1.64826340847354    2.36578276969121    2.68104967048852
C         1.07950643831105    3.40987122774278    1.71675344776073
C         2.15715183643403    4.43680140953773    1.37881736310843
C         2.66162052174730    5.12233062801056    2.64658786796108
C         3.19960493858231    4.09173566881984    3.63580096299413
C         2.13102020510359    3.05464151486906    3.97014731544288
H        -2.40106738655806    2.30836240674284    3.90428271880776
H        -1.00406931427731    3.36769665647754    3.66322227376929
H        -1.22379716649695    2.52041348061370    5.19442034723178
H        -2.31764364487745   -1.49022256401937    4.81934343139450
H        -1.86104112898097   -0.20204697669783    5.93293361143756
H        -2.95175872484738    0.14519451371093    4.59347560190108
H        -0.57466417137640   -2.83831132496836    4.34567579768943
H         1.01258258187056   -2.90920590975389    3.56517089155998
H         0.86382621934108   -2.31144472557175    5.21549271736103
H         2.60889939507930   -1.68673301115439    2.64711060530877
H         2.87525853225172   -0.19473787783610    1.74725331094751
H         3.25455218503127   -0.26371120835998    3.46722745676075
H         2.52556957871952    1.93348088849073    2.19084269845144
H         0.23532055069388    3.93169437826463    2.16483087008965
H         0.73815587934257    2.91423803549525    0.80795184111708
H         1.75175403605888    5.18137200351007    0.69124162125057
H         2.99125698408383    3.94290993168385    0.87535099190452
H         1.84338808882426    5.67859107820223    3.11013382043048
H         3.44677915527196    5.83809766344337    2.39451333724846
H         3.52487063233532    4.58969789462802    4.55184531134060
H         4.07023329757649    3.59448187294000    3.20135685577527
H         1.29180911431049    3.54612253569334    4.46278174125525
H         2.53863592301852    2.31166542858449    4.65838403267717
C         3.29808224972832   -7.07297997107498    0.77745012554272
C         3.39057824985882   -5.65566334976816    0.32610334313221
C         4.49348746200654   -5.17567775542444   -0.29478212304389
C         4.61628300924209   -3.80463171261894   -0.73947212386792
O         5.58669183723722   -3.33013537047095   -1.29012135062045
O         3.54941200988779   -2.98038115762645   -0.51240998007611
C         2.42366286335873   -3.42445040054156    0.09196948149514
C         1.39411179392219   -2.50103679353182    0.25471940785808
C         0.20424906951749   -2.89218288732046    0.84734058794685
N        -0.85110814472023   -1.98042969896244    0.99103160300971
C        -2.04187573505461   -2.34067754837588    0.65459635189210
C        -3.13793546182786   -1.43969333694388    0.86948659187709
C        -4.44281621269357   -1.88146636409448    0.72407654509055
C        -5.46917605665403   -1.00427055020713    1.06301630544238
C        -5.14948603544417    0.27848620229562    1.41999698194154
C        -3.79968609073655    0.72504656446589    1.42269083457942
N        -3.50386790934941    2.02561433829412    1.63475429509948
C        -4.52049408796664    2.99455504831346    2.01705262453875
C        -5.18144906927227    3.62181966848888    0.78768799842386
C        -4.10920247902615    4.28457240624990   -0.07548950025676
C        -3.00551422634510    3.27902248972100   -0.39609048302800
C        -2.43811928276712    2.67798240656817    0.89262647029119
N        -2.80514925055721   -0.17805549769847    1.24800596330473
C         0.05779376942017   -4.20940530633193    1.31016523007787
C         1.08180962783385   -5.11316920123110    1.16220155661620
C         2.28456494349948   -4.74975614068968    0.54056855475275
H         3.15105787198852   -7.11733070496398    1.85508881761198
H         2.45558901275351   -7.56744840661830    0.29739514208183
H         4.20773571633411   -7.61020418025495    0.52658333342484
H         5.35101884535973   -5.79890660127057   -0.49270322516526
H         1.52026294441801   -1.49699537376447   -0.11490035950244
H        -2.23298845886829   -3.30995508425331    0.20549693146569
H        -4.64417860633516   -2.88443013323160    0.38943468645697
H        -6.49933823066159   -1.32038593649406    1.02183822771997
H        -5.94115784894743    0.96941732199947    1.64824966697546
H        -5.25172657594773    2.54178899170643    2.68504254915076
H        -4.00546119219310    3.78212684928562    2.57457734566358
H        -5.92242567943774    4.35627806445817    1.10509662738795
H        -5.69165313364915    2.85356973045880    0.20367937402956
H        -4.55070508695734    4.66293607672265   -0.99860172791371
H        -3.68200837853096    5.13479983083463    0.46089428207495
H        -3.40258563878872    2.47790316939325   -1.02297906513897
H        -2.19783803419653    3.76236266862788   -0.94565435349268
H        -1.65390095553028    1.96364176775441    0.65621395510939
H        -2.02322047538459    3.47376338627246    1.51039266143026
H        -0.85547504355837   -4.50302430282700    1.80336328991051
H         0.95664694513247   -6.11925506722521    1.52681874631950
Cl        0.00241870470784    0.52223750883349   -0.35417901739096
