76
 energy: -103.599791698556 gnorm: 0.000299888246 xtb: 6.4.1 (afa7bdf)
Ir       -0.76875715735558   -1.05436518330907    1.76477950994429
C        -2.37484615049887    0.75990071093541    4.32449902240918
C        -1.15176635083271    0.15742718511355    3.72625782885716
C        -0.84163271260403   -1.23730416114285    3.97578453344104
C        -1.65621943848405   -2.14107107898914    4.84042719421304
C         0.50914005456811   -1.47244322049608    3.56872648309672
C         1.37226006784795   -2.60710543061337    4.00137355563855
C         0.96504146740404   -0.28649880742240    2.90725192847460
C         2.37518865817212   -0.04854371245300    2.48463939301597
C        -0.05060681755778    0.75026904898122    3.05324384598234
C         0.31163811103012    2.19529909098417    2.80291365477079
C         0.32653817500184    2.58646117383552    1.31806759800976
C         0.96484925384164    3.96096187177899    1.14537945192382
C         0.20325936625837    5.01158038968561    1.94814795202487
C         0.12937353642919    4.60805722622560    3.41794397528869
C        -0.51932631486472    3.23212510615333    3.56141149441074
H        -3.24360421447402    0.13205966911914    4.13959040064903
H        -2.58296432237325    1.75495959741200    3.95878837294528
H        -2.23114058192807    0.80637958552621    5.40507218340439
H        -1.40635081281735   -3.18355006108278    4.66583759205405
H        -1.45613304785084   -1.91262109956523    5.88790380889528
H        -2.71938045201056   -2.00380378860745    4.66543508225144
H         0.79127838501557   -3.49777252688206    4.22240092669079
H         2.14029597488461   -2.83694772867125    3.26844169677622
H         1.87731885271837   -2.30418807329621    4.92036908637409
H         2.88865032666413   -0.98423354607779    2.28318165611786
H         2.42632106056645    0.57619084554561    1.59758592598985
H         2.90525696525895    0.46069621257241    3.29099664623688
H         1.34510708581101    2.28956160299418    3.16451218181033
H        -0.69604397276147    2.61596713861494    0.94364897609463
H         0.87089901658902    1.85062426301743    0.72834920234786
H         0.96899847922149    4.23166724867493    0.08752402130683
H         2.00423338596091    3.92976159051235    1.48284326678008
H        -0.80902251540917    5.10679173898713    1.54876485794361
H         0.69295122851212    5.98292478638340    1.85097706184192
H        -0.45160326240689    5.34558500632033    3.97509584587871
H         1.13614127361147    4.58925431906837    3.84241910370092
H        -1.52293207132900    3.28634262610530    3.13819592811622
H        -0.58453546460807    2.96890765882597    4.61759837072815
C         6.35419773273570   -3.80799479789472   -1.13047298296551
C         5.18203913592150   -4.42081168593070   -0.37186351631968
C         3.92692513924107   -3.55550447630808   -0.47244321225262
C         2.75000321241367   -4.15754821044417    0.29340762674415
C         1.51345174175375   -3.26713699439795    0.20066362836780
C         0.34045751404349   -3.84865662881778    0.99935890070843
N        -0.78349934404376   -2.94614494088252    0.98780536967836
C        -1.85350123923096   -3.31140647240345    0.37591291472461
C        -2.93335613858389   -2.38354734362667    0.23042721658353
C        -4.07021231941743   -2.65914471946298   -0.52670316860718
C        -5.01139962596958   -1.67377242507643   -0.74406414454512
C        -4.77779893692873   -0.40255327017625   -0.21632492199517
O        -5.55288379778862    0.67008630696532   -0.35157007496919
C        -6.76396199829928    0.57376739370996   -1.08659937664325
C        -3.60602197515783   -0.21863691905397    0.54836849902802
Br       -3.32790473248580    1.51560345575222    1.19170735759415
N        -2.72663570331826   -1.16879865696686    0.80109852754913
H         6.59800702379246   -2.82540530249591   -0.73176311628053
H         6.11239759082454   -3.69720824014025   -2.18561795045814
H         7.23599654731669   -4.43943542607986   -1.04687943958547
H         5.45785714129844   -4.54206896952106    0.67841715090380
H         4.97187089725875   -5.41415390339635   -0.77513999769109
H         3.65455310807837   -3.43876464086777   -1.52353524971887
H         4.14645164909705   -2.55994897913485   -0.08051537796056
H         2.52419795365914   -5.14457163532298   -0.11501561498552
H         3.03506181241611   -4.29290224824154    1.33911144562651
H         1.21447333161066   -3.15859671549604   -0.84249512608146
H         1.74270199070556   -2.26817342592071    0.57309788420663
H         0.65232958091816   -4.00888446177256    2.03132173945222
H         0.05132981711881   -4.81311829577621    0.56960229433150
H        -1.93780209796803   -4.29040600380908   -0.08562862926529
H        -4.20099607807301   -3.64130059468831   -0.95062619792078
H        -5.89285040176412   -1.87787720577403   -1.32921059595731
H        -6.56942251159783    0.30954300712811   -2.12826505832510
H        -7.43972666035515   -0.15387667685590   -0.63233519875042
H        -7.20680865463480    1.56595840227906   -1.03772078230228
Cl       -0.19347676979432   -0.32834257382743   -0.44564443833700
