61
 energy: -107.249651011217 gnorm: 0.000263034254 xtb: 6.4.1 (afa7bdf)
Ir       -1.07125887351775   -1.71844090927024    1.72695577122619
C        -2.21431860125064    0.34888998224635    4.22118165606126
C        -1.08742181163601   -0.28149493941623    3.47954824596289
C        -0.43230086457000   -1.49776028098008    3.87874491115267
C        -0.75424725560988   -2.26170466104775    5.11596532429382
C         0.76135575388577   -1.64500579435502    3.07464304708807
C         1.86879971948752   -2.61108114669501    3.32212839545027
C         0.80488945363249   -0.56481320201965    2.15355225233346
C         1.93225192480886   -0.21616307860436    1.25084645687061
C        -0.36729193171901    0.26526324057564    2.37199002554201
C        -0.58121222769967    1.58908146218494    1.72270605698296
H        -1.82971633768372    0.72775756762649    5.16886113363934
H        -2.99809774000596   -0.36959679733793    4.44889527761818
H        -2.63680638391894    1.18618225014597    3.67437930773301
H        -1.82579783016728   -2.29833099236391    5.29004844123524
H        -0.35734851728449   -3.27159486162556    5.08197731229092
H        -0.29702099703799   -1.75069178816895    5.96458406947447
H         1.54683070605350   -3.43751061870741    3.94651908874521
H         2.26818255179189   -3.00597960293275    2.39052916322754
H         2.67543669547236   -2.08847053942119    3.83707970278592
H         1.56595816480993    0.09647848034710    0.27564473009402
H         2.60744552759843   -1.05602453797301    1.11844359719445
H         2.48847128539616    0.61636734576179    1.68274675053397
H        -1.58538996296556    1.96455372921682    1.89419402666216
H        -0.41290156040598    1.51784229007582    0.65052420180141
H         0.13161766008765    2.30810419068543    2.12690656762063
C        -9.02909115377755   -1.29409806706155   -0.90921945196950
O        -7.70921670393309   -1.24783333679555   -0.36603240329140
C        -6.88728600727329   -2.24407075519340   -0.66285034572428
O        -7.16212676622768   -3.18449873111290   -1.36993124521562
C        -5.55018577604007   -2.07898444479535   -0.00885487584833
C        -5.20860860859567   -0.94324558682536    0.73189675564326
C        -3.95611275076103   -0.87236869161627    1.30925250202070
N        -3.05437275514520   -1.84932535593056    1.20945357839674
C        -3.37389564187085   -2.95539208670247    0.48473411238648
C        -2.33208923125857   -3.93393812900451    0.42589257206289
N        -1.26610922910784   -3.69179593921137    1.12500054998612
C        -0.16728641672142   -4.56858543788844    1.05470540689045
C         0.49750033653774   -4.75922763956168   -0.15112629905077
C         1.61866267735030   -5.57200089422291   -0.19762079183293
C         2.32384357152639   -5.78815489725728   -1.50371376475790
F         2.19358110204622   -4.75448692186220   -2.35210315539804
F         1.85125549364114   -6.86908322128603   -2.16615824969062
F         3.64357142035612   -5.99522709741325   -1.35814119265537
C         2.06981128883765   -6.22041908847581    0.95020511777700
C         1.39778385164373   -6.04921015643291    2.14166933025581
C         0.27022788510375   -5.23133491424151    2.21558520195721
O        -0.36421386631863   -5.12091546764709    3.38819173529887
C        -4.61353254106895   -3.09221182531288   -0.13821721294160
H        -9.65229073549328   -1.95461340868393   -0.30415924654436
H        -9.40772202099874   -0.27626375998111   -0.87269006135926
H        -9.00428091560209   -1.66605004747284   -1.93438321470303
H        -5.91278049501063   -0.13680331038516    0.85071967312175
H        -3.66662090287704   -0.00365468646363    1.88043815106143
H        -2.43611538074434   -4.83235287686968   -0.17121801941167
H         0.15900903361800   -4.23286106596403   -1.03001784645469
H         2.94189881436037   -6.85283418938783    0.90197017664901
H         1.72551743365122   -6.55026057312440    3.03774741334866
H        -1.20230858855287   -4.64013631414598    3.30803377297589
H        -4.84851744476887   -3.97243382189027   -0.71600927840860
Cl       -0.77535752406118   -1.32199404758204   -0.61071090818455
