55
 energy: -93.126574681169 gnorm: 0.000908161635 xtb: 6.4.1 (afa7bdf)
Ir       -0.21610858023371   -0.95902707910438    1.40171280107435
C        -1.70182389546668    1.32852591516986    3.63817120960164
C        -0.52210030868553    0.62069471918815    3.07805868081322
C        -0.02447101631143   -0.63269755901038    3.60233045066547
C        -0.62925192780636   -1.36623581377904    4.74941848256525
C         1.29068528151851   -0.84771640463222    3.06721240077834
C         2.28059688815796   -1.82836453799290    3.58696920955485
C         1.53803270752164    0.18049643658933    2.10041994762026
C         2.82022162919725    0.45378051194318    1.39854393033783
C         0.40953686928641    1.09848245759306    2.12060057800863
C         0.40716934751101    2.41939874012655    1.43323576995749
H        -1.47296265019444    1.59667595647652    4.67031604502148
H        -2.58495024489434    0.69459598471907    3.65353740358093
H        -1.92737054607203    2.23420493574392    3.08640239808785
H        -1.71424312342705   -1.34500588309693    4.70089071429932
H        -0.29258636175137   -2.39827862179449    4.77845835331934
H        -0.32502319539295   -0.88390370282327    5.67913717551872
H         1.80502100146413   -2.75124843101618    3.90593816826195
H         3.04174014078502   -2.06113020563241    2.84889165611521
H         2.77274240339033   -1.38339991496775    4.45306239054222
H         2.63787359693112    0.77163146904453    0.37468758017983
H         3.46707650699198   -0.41799519720032    1.38842494436396
H         3.33888802216463    1.26403143633319    1.91125940264452
H        -0.57695739761438    2.87647566242977    1.45021193572793
H         0.72288907148350    2.31262503126517    0.39816207645207
H         1.11237417546141    3.08300548172148    1.93396654926930
C         1.39461072237864   -7.30920580371253    3.29659481217393
O         2.50732304675985   -6.71914121680909    2.64419421751903
C         2.34426414439486   -5.57017616518751    1.97104587266492
C         3.48182749757983   -5.07877490558211    1.31667848300679
C         3.39320737616171   -3.90091787192923    0.60769416308753
F         4.49268084606878   -3.43478376145448   -0.01873036118287
C         2.22548761909532   -3.16248665395387    0.52456011184160
C         1.09747944355561   -3.66473319725506    1.16549359657401
N        -0.10110471964584   -2.94584171479628    1.05162972719618
C        -1.18731449382205   -3.57396708050938    0.72298192861405
C        -2.35279816168729   -2.78571313732389    0.48652629697708
N        -2.20939727260903   -1.45454323746448    0.70906256553715
C        -3.19324604445515   -0.64845796320226    0.31661253124448
Br       -2.93279875642229    1.19860411922194    0.47298670925376
C        -4.39186299673160   -1.10038267487737   -0.22006179340323
C        -4.58361293324019   -2.46314471634185   -0.39512836567874
C        -3.54003072975015   -3.30040349993292   -0.05210469111964
F        -3.63604374014252   -4.61911477879151   -0.24138105562671
C         1.14808119569896   -4.85891112568306    1.88463106224649
H         1.00335635269932   -6.65619291982105    4.08001163313758
H         1.77673736239370   -8.22320929945161    3.74581529463495
H         0.60626353315422   -7.55771332321419    2.58253966660362
H         4.40841416585712   -5.62513454346034    1.37021418950451
H         2.17664557519410   -2.25536669177925   -0.05498787422423
H        -1.20391134597410   -4.64069692860549    0.53163992429097
H        -5.15753035090789   -0.39227781036652   -0.49430442584423
H        -5.49865128746873   -2.86149927019468   -0.80370322195113
H         0.25973138066638   -5.20381925173842    2.38763766713907
Cl        0.13098417716543   -0.52572096312620   -0.92253991854102
