70
 energy: -105.395086395921 gnorm: 0.000859105968 xtb: 6.4.1 (afa7bdf)
Ir       -0.15218855656421   -0.82811243282160    1.80248447149889
C        -2.20748315491699    0.16214192342039    4.28763866325866
C        -0.81189249969564   -0.03960760836646    3.80639528982144
C        -0.02704304523841   -1.21287806891791    4.01559185093017
C        -0.44296466243143   -2.39785419411971    4.81807235215901
C         1.29980698400426   -0.95867685475937    3.50745159121270
C         2.51094712025748   -1.79887173983086    3.74268141139792
C         1.33215288593283    0.37255833950911    2.99687297950886
C         2.55533830093910    1.09473615629348    2.55495128207699
C         0.00916041371645    0.93109551231201    3.12976905051639
C        -0.32201929050345    2.34130480738931    2.88364590874877
C        -0.87319342314553    3.11827613077237    3.90159473795414
C        -1.13386345574055    4.45351658803168    3.65964742583293
F        -1.66420809729626    5.19895158422232    4.65227513007846
C        -0.87289695069121    5.05885644077885    2.44311013566606
C        -0.32436780457795    4.26141530135964    1.45335686661331
F        -0.05927020781494    4.81561652515398    0.25226065981374
C        -0.04499232407343    2.92231628914312    1.64624656120222
H        -2.66688308362573    1.02386788016456    3.81184973442317
H        -2.19555621457195    0.32605316624989    5.36570709897770
H        -2.81910364893467   -0.71670378096422    4.09668540466653
H         0.04774480812874   -3.30516441064704    4.47671287727403
H        -0.16190316542211   -2.23611903189349    5.85944199571635
H        -1.51856587813639   -2.54212710229897    4.77661109527837
H         3.05450978349939   -1.40530671356308    4.60264535710358
H         2.24875064522323   -2.83039938825830    3.95664543548439
H         3.17539991615397   -1.76821341667544    2.88308867581080
H         2.87119133549709    0.76161211347879    1.56653842142600
H         2.37069335158269    2.16497930033198    2.50647490211517
H         3.36851099829720    0.89839751495084    3.25234975128471
H        -1.07278963579392    2.70767036549477    4.87742558195384
H        -1.08208513662160    6.10220991777088    2.27635465073166
H         0.36577734056110    2.33621600962889    0.83849384270466
C         4.41937353590481   -3.81156341742010    0.62879323464514
C         3.04256045330694   -4.46335960186115    0.54017603587043
C         1.92320566408724   -3.46129874191728    0.19703366708052
C         1.48650713896496   -3.55676560491255   -1.26852875255327
C         2.58665173073469   -3.17135487148513   -2.25157472870930
C         0.71005079457592   -3.71728159301028    1.12565947022257
N        -0.29279313769600   -2.69401149426651    0.99067518310986
C        -1.30948501844338   -2.90859047554830    0.22983017412288
C        -2.25060462410274   -1.83230460939832    0.05560548734261
C        -3.36162279636794   -1.88841366924479   -0.76513930149081
C        -4.19374439345728   -0.76438807339717   -0.88168697039126
O        -5.24752984229214   -0.87855393486649   -1.67793146436171
C        -6.13265539553897    0.22195443649155   -1.84105714484165
C        -3.83697072357256    0.37934427029269   -0.14937734663376
C        -2.71159646531890    0.34942430265257    0.64615889282391
N        -1.93533808927671   -0.72245299305253    0.76945661828890
H         5.17981329388216   -4.56758175473569    0.81223398478065
H         4.67012533302143   -3.29307766718756   -0.29200178735343
H         4.45448823153409   -3.09377002799519    1.44454584520877
H         3.06573091951623   -5.24952276467567   -0.21557948632624
H         2.83337540445805   -4.94751765853522    1.49564618126506
H         2.27611891103361   -2.44235685500393    0.38109957346660
H         1.15179922125067   -4.57450919376058   -1.48394123153303
H         0.64683877469383   -2.87760571893743   -1.43163198519652
H         2.20026013555919   -3.19526917499001   -3.26828876554897
H         2.93806516440805   -2.16258250905020   -2.04776887627589
H         3.42827153193871   -3.85595391831187   -2.19590484602042
H         0.28454851353258   -4.69613197752715    0.88442541072892
H         1.05867764611734   -3.71684304633241    2.15819813431639
H        -1.46397468641339   -3.85810209704099   -0.27077008085863
H        -3.59383678569672   -2.77805662317491   -1.32672934940990
H        -5.61692945290431    1.07838350369165   -2.28024188320694
H        -6.58673641888327    0.50378472275975   -0.88892009959861
H        -6.90365972438009   -0.12799033086774   -2.52368020126947
H        -4.41930888531189    1.28389419649466   -0.19481892834166
H        -2.42059893836788    1.22542187425447    1.20688819592053
Cl        0.78396533144174   -0.10469303146125   -0.25255605251109
