76
 energy: -100.036786747528 gnorm: 0.000251761228 xtb: 6.4.1 (afa7bdf)
Ir       -0.56176371567341   -1.24222365771296    1.60161261029518
C        -2.27741831632879    0.39431961396461    4.09782134193532
C        -0.99986428709463   -0.13886508947698    3.54283304406794
C        -0.53474515940818   -1.47291264220651    3.82271585094655
C        -1.22930584859423   -2.44942493260506    4.71159289900217
C         0.82904232497748   -1.57257389603382    3.37357614713047
C         1.78156634449448   -2.66024271671506    3.74061218775519
C         1.15589133448910   -0.35917210612061    2.71156402637664
C         2.50474026654990    0.02361740944130    2.20075232565031
C         0.01386335106985    0.54061538113118    2.80936524720571
C         0.10867251456119    2.00012328324479    2.45227579501999
C        -1.02907556561042    2.53200044144876    1.57483437876300
C        -0.75700946878794    3.98700193098103    1.20241915185024
C        -0.62308687323948    4.84411748287137    2.45907154290125
C         0.48976205191504    4.30832083538683    3.35621182353257
C         0.23033269359309    2.85058828959158    3.72686320623342
H        -3.10168933289996   -0.29387059859508    3.92149584512108
H        -2.53063876965557    1.36440127340539    3.68606386056062
H        -2.16333745665536    0.50130196805190    5.17736790873012
H        -0.94647300865472   -3.47128838093851    4.47466659266852
H        -0.95196895494639   -2.25268813124144    5.74800174197291
H        -2.30821838935811   -2.35861962981520    4.62694292240947
H         1.26045470947693   -3.58489700025328    3.97097666214783
H         2.51176540669086   -2.84261916654460    2.95681144864916
H         2.32288606307550   -2.35273350511959    4.63656289458874
H         3.16816722281088   -0.83541145460517    2.16902931229076
H         2.43527121046796    0.44661629333584    1.20014966650892
H         2.94472904929022    0.77462641170361    2.85689266836527
H         1.03030340141762    2.13218119511085    1.87749221226005
H        -1.98115656773018    2.48716546528609    2.10390876891319
H        -1.10055048635058    1.92366491747071    0.67189764730353
H        -1.56938365602068    4.36621732131660    0.57879037562222
H         0.16442812733186    4.04978304571478    0.61908178327301
H        -1.56800465881044    4.83711857783564    3.00814188319945
H        -0.40949535030640    5.87860913251222    2.18236474739068
H         0.55932274614071    4.91132251996701    4.26406311888071
H         1.44474350001941    4.38801682590123    2.83127991753186
H        -0.68958639426026    2.78393449567405    4.30862487806196
H         1.04705195331155    2.47486581299980    4.34656613279197
C         5.20589450746499   -3.03874613888298   -2.95295323868095
C         4.07646009405031   -3.65462985717344   -2.13393226107431
C         2.79717212561401   -2.82423852822591   -2.22780209971921
C         1.60341393518795   -3.44578221645747   -1.50095009245315
C         1.77258940936839   -3.44424931920017    0.01634923062098
C         0.53548103999455   -4.00412945757707    0.73349529716788
N        -0.56426162429603   -3.07306961169312    0.69208429669918
C        -1.57836705364444   -3.33312747102645   -0.05571583713892
C        -2.65087669117653   -2.37446179805518   -0.07684444306133
C        -3.78482435289393   -2.49116824659189   -0.86065230427863
C        -4.76514646808238   -1.49056486200756   -0.81486130580192
O        -5.83287930974741   -1.65794512658739   -1.58712018346676
C        -6.86166165896420   -0.67781181922588   -1.58715493797478
C        -4.53253077032233   -0.40327454006499    0.04149086008070
C        -3.37257862253405   -0.36452315109102    0.78563994019254
N        -2.44701607317475   -1.31858003881182    0.75129488263543
H         4.92772540000894   -2.97336611276386   -4.00300513398380
H         5.43207395402351   -2.03516633054179   -2.59825930027839
H         6.10874045260742   -3.64102144320867   -2.87601928276633
H         4.39931947078001   -3.73088875618243   -1.09457080886526
H         3.87887038202488   -4.66564467350253   -2.49841518252935
H         2.97927909886286   -1.82495116494154   -1.82705124253945
H         2.53687165405471   -2.70738944861118   -3.28255769195226
H         1.45929181991214   -4.46820384938085   -1.85788517881145
H         0.71486975209480   -2.86454320297121   -1.75490289973292
H         2.62845866572302   -4.05744135275120    0.29585500007187
H         1.94805647776613   -2.42021764287902    0.34974501007594
H         0.24461014485811   -4.94987975213740    0.26557913237978
H         0.78042462061305   -4.18707106631617    1.78049204919744
H        -1.63963921977003   -4.23752387631466   -0.65146672887284
H        -3.92111700178800   -3.33564903446739   -1.51543573350203
H        -6.48186184471129    0.28988213389088   -1.92134159918225
H        -7.31359918989178   -0.58378143392883   -0.59743290573275
H        -7.60440574956511   -1.04068637050615   -2.29399119983313
H        -5.23665977267023    0.40645728652655    0.13052634635261
H        -3.17982429188592    0.47239669062010    1.43839704228089
Cl        0.05030367880925   -0.31918443329896   -0.51374906340392
