81
 energy: -117.414844152321 gnorm: 0.000470668975 xtb: 6.4.1 (afa7bdf)
Ir       -1.02826771862185   -0.29022465316994    1.70742476373458
C        -2.20935571562380    1.84110497406352    4.19040381364836
C        -1.17227556693945    0.91678994753381    3.64763120627487
C        -1.27966494468324   -0.51438651277377    3.88276565935963
C        -2.38944098218390   -1.16323046223779    4.63880117341351
C        -0.03409707398375   -1.11523393565882    3.54609716787612
C         0.38168402080321   -2.50336745403414    3.88197603615137
C         0.78320303958680   -0.10058305653348    2.94841951177006
C         2.21793259268637   -0.26706422893236    2.57884694113336
C         0.10953635729430    1.18342983202470    3.09460783101994
C         0.88375671476070    2.46835178700405    2.92414099938461
C         0.99995007351065    2.95319530034587    1.47097387161696
C         2.03437975630066    4.07186416862776    1.38192033060225
C         1.65881704888007    5.23414300747260    2.29786975637745
C         1.47214531270186    4.75088373851163    3.73414018281653
C         0.42006604666609    3.64415935043467    3.78878185901263
H        -3.20484559152601    1.50551622005023    3.91082577590810
H        -2.07273790076695    2.86210722754629    3.86215571468218
H        -2.14900849970065    1.82192917051159    5.27932284332354
H        -2.38903772305977   -2.23859541109623    4.48751430966638
H        -2.26188920042634   -0.97037457016587    5.70444425338836
H        -3.35547316681823   -0.76658919586206    4.33868879473646
H        -0.44590825842969   -3.20264999722454    3.79895920296079
H         1.19815658158439   -2.84310909808040    3.25183862304114
H         0.72655171684722   -2.51524905858963    4.91671722541200
H         2.43200296861197   -1.29380876558186    2.29554500365400
H         2.48929160645223    0.38442312360696    1.75329467582405
H         2.84435905065095   -0.01473544423321    3.43572357466767
H         1.90181424023656    2.22270521967062    3.25353217349044
H         0.03488937759606    3.32603475524289    1.12805424529776
H         1.28372696718849    2.13260393981463    0.81390596275156
H         2.10698603770273    4.42180431814986    0.35042407081565
H         3.01624342908316    3.68810482284822    1.66960218907409
H         0.72989039783109    5.68786981772972    1.94491608754345
H         2.43499960047752    6.00116297126131    2.26138728213724
H         1.16169635989240    5.58459956588988    4.36726571589290
H         2.42329683654960    4.37806490139081    4.12111624618972
H        -0.51302993170856    4.05728369676474    3.40538116200924
H         0.27227937308913    3.32432027099003    4.82093109822984
O         2.99703462352933   -6.80158610455938    0.63647194392494
N         3.17358476377825   -5.64080245470010    0.31149387544167
O         4.22926677056431   -5.20817666534885   -0.11491257104937
C         2.07299312047314   -4.73172790883346    0.43749941927707
C         2.22875863024007   -3.40273637120687    0.04912008093691
C         1.16795312010169   -2.52990562661100    0.16759202386470
C        -0.05799965626878   -2.98138198553774    0.66257814017234
N        -1.13695992413199   -2.10060649576190    0.78601674399232
C        -2.30822611496416   -2.45920632753612    0.38227813898687
C        -3.42428863845899   -1.58323788479471    0.58649874609352
C        -4.71425559840436   -2.05027380238078    0.39775518203296
C        -5.76984513979088   -1.21157288391839    0.75043499128845
C        -5.49210077092204    0.07086374201753    1.13676935475271
C        -4.15178425656952    0.55691057306291    1.15300023416839
N        -3.91692795638103    1.86564592494776    1.32164963155998
C        -2.71472831791634    2.50379069301780    0.81668298179405
C        -3.09622852249015    3.70188990283793   -0.04968535779533
C        -3.75753756732971    4.79335527559661    0.79860428894359
C        -4.45965769666733    4.16206638947659    2.00476262362650
C        -5.00396673765235    2.78060725174718    1.66044765489498
N        -3.12838043146690   -0.32260573638021    1.00423405651655
C        -0.20064118005295   -4.31767235386996    1.05736003355348
C         0.86044789100545   -5.19048430680689    0.94656714590913
H         3.17939457306885   -3.07534291526847   -0.34199389101690
H         1.26216334382209   -1.50235450669268   -0.14586051992798
H        -2.46562821158686   -3.40758043257359   -0.12139349865626
H        -4.88397731649539   -3.04808863174632    0.03185065342044
H        -6.78888768246503   -1.56041269782923    0.69918354459173
H        -6.30152389380807    0.73277245432588    1.38622890055984
H        -2.08166666146473    2.83456719934133    1.64042888711957
H        -2.16123720560106    1.78537464409927    0.21517748969008
H        -3.77562187713198    3.36521459037416   -0.83407903607359
H        -2.20124192872686    4.08370664840113   -0.53981204924917
H        -3.01285248651992    5.50936427725072    1.14748135993335
H        -4.47417392639082    5.34487365419017    0.18960008039319
H        -3.77103727660506    4.07776126592956    2.84460571923985
H        -5.28903697708560    4.79068428097278    2.32876391583221
H        -5.70317281985307    2.87389509674725    0.82163507033319
H        -5.54171328319928    2.38765052292660    2.52643641283167
H        -1.13749256939610   -4.66187877250624    1.46688420800305
H         0.77021626100923   -6.22295166764995    1.24628590742853
Cl       -0.32343270431324    0.40949886194758   -0.47888385226888
