72
 energy: -92.795662017450 gnorm: 0.000697565874 xtb: 6.4.1 (afa7bdf)
Ir       -0.04851990086625   -0.91860544358398    1.39369905184099
C        -1.99895478218619    0.90932749305960    3.56448548020743
C        -0.68542283425683    0.29890616934177    3.20897319844613
C        -0.32075988815583   -1.03787585514184    3.60562232539264
C        -1.16543172989509   -1.94067437782066    4.44032930906842
C         1.08529963001952   -1.21087987725824    3.34781369261319
C         1.93009113065961   -2.31924849441040    3.87842506174281
C         1.54966768992820   -0.04504820964009    2.68427549805415
C         2.96913204364325    0.26268505561983    2.34343665014111
C         0.44567573472467    0.90256341784175    2.59068956221524
C         0.65367678216949    2.33947410161224    2.19334640398317
C        -0.31819895376746    2.87169407344208    1.13523146580793
C         0.07185915131828    4.29573945689844    0.74819892963981
C         0.05883965301425    5.20645883915859    1.97383138407005
C         0.99871130810708    4.67101207911888    3.05114691746948
C         0.62136921202702    3.24315993769628    3.43666159129572
H        -2.82364773397487    0.23963241019380    3.32849826044607
H        -2.15833647517118    1.85855826176771    3.06595181206879
H        -2.01550443622484    1.08342867615094    4.64126463868466
H        -0.89824970493738   -2.98315266462942    4.29189723619597
H        -1.01410154452959   -1.69954035776339    5.49321473817870
H        -2.21989212669437   -1.81480183553983    4.21306377874729
H         2.35499980176746   -2.00117718733307    4.83135529043053
H         1.34335174243413   -3.21489228380940    4.06060269999800
H         2.75334824466748   -2.55491888207486    3.20998510188376
H         3.59405255945543   -0.62054364424612    2.43705055492969
H         3.05072211765372    0.64124142304567    1.32613726271059
H         3.34966469694726    1.02660889093437    3.02149637180960
H         1.65487553292408    2.41201650284735    1.75801156093329
H        -1.33895972517832    2.88876577800022    1.51790925443072
H        -0.28298221731492    2.22537423313827    0.25677928992574
H        -0.62202248503302    4.67583114407783   -0.00444993146587
H         1.07061664011913    4.29459570793750    0.30562263641262
H        -0.95642280238116    5.26547181010931    2.37381047928031
H         0.36047673597711    6.21634046144299    1.68850667850763
H         0.95612486921797    5.31256802733652    3.93399785993584
H         2.02480776826057    4.69049426644712    2.67625964208532
H        -0.37739745489019    3.24023897976846    3.87401030627844
H         1.31789359012098    2.86562978823606    4.18807946731183
C         7.29963518661926   -4.05883405277349   -0.61649591350217
C         6.01320884378688   -4.58463075810575    0.01094475888084
C         4.83911337610186   -3.63652679081403   -0.22544296396998
C         3.54370233711394   -4.15815090246202    0.39395958524610
C         2.38289635594063   -3.19906968171907    0.14456183272188
C         1.07879843927700   -3.72843306939119    0.75634132485146
N         0.00750911085833   -2.78422714524796    0.56636710523850
C        -0.91222841852898   -3.04588968707764   -0.29663512662530
C        -1.93645582325552   -2.05835492986219   -0.48969711209419
C        -2.97840298990445   -2.16835719155056   -1.40996100906158
C        -3.89088181314806   -1.13550202375723   -1.51637575605931
C        -3.73025552232183   -0.01870606227737   -0.70346842788830
C        -2.67078361456306    0.02397528943922    0.18557165305902
N        -1.79506635352615   -0.97000035422551    0.30479180402201
H         8.12223118759506   -4.74802029869876   -0.43957978700858
H         7.56590739858455   -3.09234358951805   -0.19400987242115
H         7.17964336869835   -3.93939345159242   -1.69107704546135
H         5.78005869735535   -5.56335056415621   -0.41379464578449
H         6.16422224006791   -4.71798471913407    1.08443986194745
H         4.69854778549166   -3.50279412161495   -1.29981565349331
H         5.07880292922318   -2.65866315491776    0.19685225617808
H         3.68891347468929   -4.29632289170147    1.46733563471941
H         3.31191511014414   -5.13511421944721   -0.03468042697938
H         2.24137470578015   -3.06334489721736   -0.92839283556429
H         2.60924405706362   -2.21927585419189    0.56688900816089
H         1.22121167881927   -3.88268387094627    1.82679455231709
H         0.82384416543012   -4.68597340803927    0.29140405596620
H        -0.92096798098613   -3.96772539407257   -0.86853426694807
H        -3.05161401578218   -3.04916164460182   -2.02713656359876
H        -4.70752721526411   -1.19235967257847   -2.21845311689787
H        -4.41641037052614    0.81060129033092   -0.75606720297547
H        -2.51926884125575    0.88331427340742    0.81972080012917
Cl        0.88707967071931   -0.13508632345687   -0.66267501880522
