68
 energy: -100.489140056374 gnorm: 0.000304869396 xtb: 6.4.1 (afa7bdf)
Ir       -0.01158125239465   -0.55406405607832    1.41971367647115
C        -1.47271082727821    0.80675099151064    4.10585709061358
C        -0.21747375353339    0.35518624282187    3.43980778247597
C         0.39109479531503   -0.92922254725023    3.59295117195429
C         1.64459526893035   -0.91604497592259    2.88586084163097
C         2.70734129103419   -1.95909976523709    2.98210348865193
C         1.83330247878170    0.39582403888241    2.34120724238375
C         0.66586241841115    1.17335285582946    2.63919348197701
C         0.51750424592289    2.60742029771719    2.35975797612087
C         0.20519384928291    3.50637377376679    3.37855545203064
C         0.09378210390051    4.85629387819480    3.10961673577997
C         0.29357631564340    5.34998205264206    1.82126297182625
C         0.18283564807597    6.78905645959847    1.53975269761118
C         1.10525944208161    7.41913822286800    0.70662921524617
C         1.00821258934517    8.77380475597804    0.44713244398073
C        -0.01607163922860    9.51918816175593    1.00844879654632
C        -0.94152539384937    8.90158594298011    1.83411992029096
C        -0.84121111040211    7.54856564145307    2.10184671704457
C         0.60815548589589    4.44791938470037    0.80575107970484
C         0.71824822893332    3.09739597159834    1.06835464988397
C         3.08137079656972    0.88678763259391    1.69787713115348
C        -0.09578674908190   -2.03264879556716    4.46730433632774
H        -1.26337136858215    1.03574676482064    5.15140921018979
H        -2.23158202058389    0.02801484365572    4.08476245087823
H        -1.86707640522430    1.70042821327328    3.62974494794872
H         3.32547601955062   -1.75682905752021    3.85782491107430
H         3.34612571174135   -1.94403093895862    2.10385527088374
H         2.27941529560221   -2.95161480541169    3.09038903413685
H         0.08060476685306    3.15111773496836    4.38932567026572
H        -0.12611783988504    5.54288735374821    3.91338859044801
H         1.91650281201557    6.84868529169846    0.27799979869901
H         1.73540502662721    9.25132486324117   -0.19361865167190
H        -0.09218545472852   10.57695614814483    0.80322163261830
H        -1.74461160724742    9.47810667267027    2.27018023421813
H        -1.57483346635473    7.07297595286435    2.73637848774650
H         0.75066822756395    4.80812699684022   -0.20195092607601
H         0.94228005217202    2.40865265686930    0.26663897911103
H         3.17794253590245    0.49467634913689    0.68538750414959
H         3.07974777243839    1.97245082418675    1.64196055648212
H         3.94492496573518    0.55389801449667    2.27108958264515
H        -1.16970678957747   -1.97256267905635    4.61818397628025
H         0.15218741362567   -3.00470586203413    4.04742124730722
H         0.38945411543479   -1.95349810352347    5.44071831328425
C        -1.91525891966068   -2.31126966402724    0.20904255539553
N        -0.77503704914120   -2.33618169212838    0.82034436528223
C        -0.12351388773710   -3.55893600406073    1.03988204555547
C        -0.79765121338728   -4.62921307405080    1.62808238901140
C        -0.13558584544186   -5.82639534726382    1.83067363028702
C         1.18607808841064   -5.97047294198823    1.43601314020877
C         1.85304266418474   -4.90691908698860    0.84563442329329
C         1.20906129822983   -3.69872671298052    0.65612510323507
C        -2.52138093303725   -1.02485826809685    0.01588600645588
C        -3.70845748748791   -0.80552456619825   -0.68370530990915
C        -4.17089155550744    0.48975753953585   -0.82573078922805
C        -3.43139044637743    1.52933293835796   -0.27215317434792
C        -2.25937703451836    1.23938747177386    0.40582544076817
N        -1.81486080653974   -0.00349490363619    0.55776373944870
H        -2.37650319056470   -3.21266784550005   -0.17784036075233
H        -1.82209506140327   -4.50706816917852    1.94553474571809
H        -0.65449650353133   -6.65044085338339    2.29524618091776
H         1.69602677078745   -6.90881892304117    1.58884675166696
H         2.87912195259726   -5.01953829092793    0.53199955699788
H         1.70624492466021   -2.86716944432674    0.18156283962601
H        -4.24097692760047   -1.64250602790387   -1.10598192538747
H        -5.08560574074592    0.69102537231594   -1.36072425546959
H        -3.75587677939157    2.55289389982696   -0.36217645864578
H        -1.65764419690749    2.02853503258792    0.83465765871793
Cl        0.87273388466761   -0.33267583771146   -0.77837701913185
