59
 energy: -95.975444183080 gnorm: 0.000940862412 xtb: 6.4.1 (afa7bdf)
Ir       -0.67877868557259   -0.99553764569028    1.42018522327630
C        -2.08167452383028    1.35945684368643    3.47847695641305
C        -0.92558759167666    0.49869960467308    3.09507972804621
C        -0.66142090060698   -0.81874517220464    3.63738166432410
C        -1.48435882880265   -1.50184883155230    4.67516090969297
C         0.66258685130780   -1.20297477439755    3.23817129406223
C         1.41402077150330   -2.37578064238549    3.76163271352846
C         1.16351439021348   -0.19765670151734    2.35707965875213
C         2.55105185904345   -0.08761431137778    1.82511476999733
C         0.18762679655753    0.87926487266206    2.30352441293039
C         0.44269608489121    2.20333909929636    1.66989107907971
H        -1.83524619576134    1.88259311053239    4.40334373099857
H        -2.97306595756833    0.76512068358913    3.66026361340190
H        -2.28881402147332    2.10795874220201    2.71830608673049
H        -2.54499554273979   -1.32608290758098    4.51963943510911
H        -1.30091606393651   -2.57230678385464    4.67801771241510
H        -1.21672614063518   -1.10964569075368    5.65699559247480
H         0.76206968393742   -3.23126286631018    3.91531705056473
H         2.21691336529305   -2.66380678026867    3.08972422400207
H         1.85107566770057   -2.10572880884982    4.72340560982342
H         2.54666763849648    0.34834284983619    0.82888998306241
H         3.03949995971173   -1.05662022234755    1.78396874304741
H         3.13328394026346    0.56555935680526    2.47614524148753
H        -0.41651968186120    2.86020665818113    1.75805022364278
H         0.68476034073122    2.08244156419897    0.61552071947963
H         1.29616438861764    2.67442443598521    2.15618500983578
C         2.57839997280195   -7.74762344550718    2.35455917097298
O         1.44972246082036   -6.91262461102362    2.16259498717032
C         1.60679240978153   -5.72454735504926    1.55194360352174
C         2.81604278439601   -5.23371428817367    1.05971398076744
C         2.84883190670226   -3.98366381275098    0.45835990919765
Cl        4.35820662418030   -3.38754048582942   -0.16239972260739
C         1.71838708139360   -3.19688603751619    0.34695999209801
C         0.51132300614636   -3.69650789801337    0.83648745909774
N        -0.63759614694508   -2.89783821411819    0.74053627346046
C        -1.71987195801713   -3.36531224880781    0.20579485478697
C        -2.84004156915295   -2.47858382014975    0.14447459436674
C        -4.04099703264725   -2.76868380058681   -0.51192757274718
C        -5.01404423188837   -1.80086333377914   -0.57600193669130
Br       -6.66621792158814   -2.10762037522938   -1.46231444899712
C        -4.79312379753879   -0.53619410835851    0.01653668029911
O        -5.76516551344368    0.35915904021099   -0.08783410527091
C        -5.58891577200098    1.66717651512621    0.43877559189440
C        -3.57397310720518   -0.34527575634432    0.67220168608719
N        -2.63228042981680   -1.28022910014402    0.73817142328578
C         0.44927889610624   -4.94985046882264    1.42640966924946
H         2.20116654101520   -8.62786454990970    2.87071891454209
H         3.01876147688237   -8.04632057318358    1.39999965481258
H         3.33211278399947   -7.25552451867987    2.97436020008389
H         3.72596964450575   -5.80408039375168    1.13473539646187
H         1.74716168062928   -2.23411238458034   -0.13534376165454
H        -1.76384123969725   -4.36134779717432   -0.21827572597789
H        -4.18713282938839   -3.73110787682066   -0.97475233714411
H        -5.48187625864873    1.63837632680510    1.52484409047438
H        -6.49777790626199    2.20439524328718    0.17657611019315
H        -4.72748143199898    2.15810110621117   -0.01812682179665
H        -3.34937410409515    0.59493067221145    1.15044857203782
H        -0.47549912473011   -5.33534556832242    1.82212974261804
Cl       -0.25971249808850   -0.29058676379052   -0.82290751077564
