74
 energy: -109.751721583122 gnorm: 0.000523935530 xtb: 6.4.1 (afa7bdf)
Ir       -0.85903812257492   -0.95321843632838    1.32327951945635
C        -2.08627116831333    1.29405347759807    3.71381312958972
C        -1.01589029180546    0.39962456212901    3.18292865594910
C        -0.94244077443358   -1.00213688099108    3.54408070106834
C        -1.90285029732305   -1.69781214375152    4.44808337015657
C         0.34628557099095   -1.49288036744144    3.16293237532054
C         0.93381956516966   -2.78881914123799    3.59969518083862
C         0.99962785084322   -0.46222078874574    2.42186364575373
C         2.41336854949220   -0.49813348417355    1.94508803014873
C         0.17259759002151    0.73775416768367    2.48394105865812
C         0.71080159271131    2.09719377541504    2.12800773908118
C        -0.16838415555480    2.95500253594311    1.21256741377783
C         0.55559601198720    4.25657271559966    0.87720547002805
C         0.88449109287500    5.02987432069795    2.15191833920805
C         1.73683235677017    4.17799195733043    3.08849653979100
C         1.02753192659149    2.86846443692093    3.42191470112553
H        -3.07504103474741    0.88028269011738    3.52766771902018
H        -2.03964957049578    2.28788161548759    3.28536234946711
H        -1.95873660542642    1.37485723103312    4.79399253923634
H        -1.87798812683862   -2.77349075871621    4.29489665876900
H        -1.62906243527411   -1.49760222664787    5.48463545378057
H        -2.91760125293546   -1.34318671918237    4.29147769836017
H         0.18097697553486   -3.57101952774093    3.65636166158578
H         1.73327843931284   -3.11211590001558    2.93920253897938
H         1.34985109651518   -2.65527577269550    4.59920207920473
H         2.76147254215243   -1.52104083650459    1.83812976457526
H         2.51265121958166   -0.00134988220331    0.98303481507560
H         3.05444781200243    0.01203667654930    2.66426403584165
H         1.65406506428759    1.94308658405168    1.59605421083945
H        -1.11223032453417    3.20225747565528    1.69923857948398
H        -0.37796047753014    2.40409533819679    0.29447024027742
H        -0.06981626951348    4.86638623152132    0.22222014306964
H         1.47882453321546    4.03367881618175    0.33778785423756
H        -0.04257308469925    5.31107030910499    2.65726694744071
H         1.41656036696348    5.94966191854386    1.90150713168681
H         1.94032976401297    4.72730704090238    4.00987284221799
H         2.69537394549579    3.96515944461121    2.60988163534271
H         0.10446054521806    3.08496792366448    3.95996044584710
H         1.65988774610112    2.25891915938762    4.07006013667570
C         4.83436186738658   -4.14817159983465   -0.81229803549155
O         3.64746902522963   -3.38823111655323   -0.66730608253182
C         2.56918785728312   -3.95546808338357   -0.09402196893882
C         2.52663649920261   -5.24767234606160    0.43407463277302
C         1.36128826963648   -5.72418113552667    1.01129055136329
C         0.23521368189600   -4.93051508482736    1.04687707392526
F        -0.89141401355361   -5.39743233177149    1.63806891154470
C         0.24747706663227   -3.63151680611685    0.52477023475859
N        -0.89051304238955   -2.81497390961272    0.56031198127783
C        -2.03334899396033   -3.28067750073402    0.16884552755391
C        -3.14510041846621   -2.38089196359586    0.19076051844771
C        -4.43587354432918   -2.75325020998558   -0.23500512070177
C        -5.43157472754540   -1.81811884241568   -0.23437357271687
C        -5.12616605287523   -0.48501239220736    0.11372098379220
C        -6.08138324727055    0.54910710745283    0.06158610374126
C        -5.72731660850407    1.84206134271973    0.33956185121685
C        -4.39808728549347    2.15389323677150    0.66824130359030
C        -3.45278005008756    1.16858318635923    0.75959738200766
C        -3.79013418694182   -0.17371330957862    0.50701445407876
N        -2.84775158707446   -1.14186407171920    0.60767786058843
C         1.42548537723643   -3.15470356783590   -0.03163027382533
H         5.53356338785144   -3.49271434535885   -1.32698888446272
H         4.66195188577042   -5.04210538199866   -1.41667175506840
H         5.24657500452249   -4.42985231942641    0.16011058088660
H         3.39106622840413   -5.88938880037549    0.40457877169350
H         1.31956654337448   -6.71578851736545    1.43233551138457
H        -2.14447558013358   -4.28583245618478   -0.22101468768124
H        -4.61203510409299   -3.77115842152214   -0.54139972636615
H        -6.43988401828367   -2.07383121934685   -0.52119330113861
H        -7.09290146989689    0.30209346152392   -0.22196574352801
H        -6.46173749428565    2.63052537438849    0.28961145365475
H        -4.12487192803287    3.18251034020920    0.84365991985493
H        -2.42130405107586    1.39629868246086    0.97301416747538
H         1.45037108585058   -2.16289392526057   -0.45366871141960
Cl       -0.32432554178836   -0.13519061114554   -0.84601426269514
