81
 energy: -120.154862390833 gnorm: 0.000638122534 xtb: 6.4.1 (afa7bdf)
Ir       -0.65316169627650   -0.52744004068058    1.10298010520947
C        -1.82935428308606    1.89974896164213    3.38130631234360
C        -0.74278962833889    1.06400449763822    2.79164271960229
C        -0.44177438184342   -0.25677926047597    3.30033232126610
C        -1.17502385682976   -0.91142600453412    4.42275479593841
C         0.84055846986083   -0.64737272113324    2.79348216162375
C         1.65107277605869   -1.78800168968451    3.30628914696560
C         1.25631930204414    0.34753105606143    1.85762748726077
C         2.60242500579697    0.43994228495220    1.21936659808886
C         0.28458513111251    1.43156929434578    1.88392167869632
C         0.58206710896688    2.77365081315243    1.27309279420488
C        -0.53727402294335    3.40358697166824    0.43892948194842
C        -0.04750461112962    4.71380653771877   -0.17316002871767
C         0.39305380474177    5.68549680997053    0.91894066457887
C         1.49066174682638    5.06128003751924    1.77611029313115
C         1.01629233528662    3.74494699407612    2.38568803986620
H        -2.77862329958100    1.36846331559429    3.38904781162377
H        -1.95976261631229    2.83726705062490    2.85445279980568
H        -1.56329209720835    2.11922094205298    4.41639972284252
H        -0.97124399828073   -1.97753642305718    4.45842744919177
H        -0.85053240230011   -0.47180751847892    5.36670301546530
H        -2.24712192853900   -0.75898578484426    4.33234916630972
H         1.02363096122939   -2.63410272099098    3.57355792564161
H         2.39187094320869   -2.11739035850556    2.58338331116472
H         2.17508459187974   -1.46009731106523    4.20503817878798
H         3.15341500580128   -0.48839706038538    1.33483419652567
H         2.51581633340291    0.65671840496272    0.15672441265529
H         3.17445351249048    1.24081846490784    1.68829955026911
H         1.43186300233159    2.63893817516223    0.59728790776226
H        -1.41011247750379    3.61921879459848    1.05543868455321
H        -0.82736128749607    2.71258859320872   -0.35393712592092
H        -0.84601117608337    5.16023601248366   -0.76885178314897
H         0.79169205738624    4.51415814720072   -0.84338948888772
H        -0.46265934741280    5.93802859081177    1.54994207730600
H         0.75653522344165    6.61101667394423    0.46792629227082
H         1.77861413076220    5.74994068624714    2.57327696166274
H         2.37279221658265    4.88159281880051    1.15718772080163
H         0.17746483884659    3.93814957331849    3.05506353270924
H         1.82000350766330    3.29806149584061    2.97411346944136
C        -9.04080586270980    3.46876705543635    0.06525711279891
C        -8.20860360015686    2.19659743252054    0.05351612873002
O        -6.85531084980879    2.55833180879957    0.30729501861149
C        -5.91137641489017    1.61206078284936    0.35579115677801
C        -4.59338888305318    2.08416732579854    0.59416365635757
C        -3.54399890818356    1.22413433756397    0.69344443389254
C        -3.72699366163375   -0.16733312015276    0.54866931742918
N        -2.67998298881250   -1.01049848823189    0.66163246333823
C        -2.85867626171090   -2.30738395621273    0.36252247509489
C        -1.67018713185369   -3.09181589015303    0.35992510078920
N        -0.54397466504755   -2.49391611322763    0.60801354090384
C         0.62605612850785   -3.26811068879260    0.63108453952564
C         0.65259563837075   -4.47897178901286    1.33142569814161
C         1.80196931152041   -5.26215191047013    1.35798328989297
O         1.91988184994546   -6.43368098435330    2.01115372168469
C         0.80210807956509   -6.95845010530766    2.70573925487519
C         2.94094482956835   -4.82799039085289    0.66526284513195
C         2.92442747356548   -3.64016525652485   -0.03133086175439
C         1.77712433838802   -2.86333784170607   -0.04005014561137
F         1.77630388839340   -1.70930223828479   -0.72950299211020
C        -4.12211495264013   -2.84695008628300    0.04046490818442
C        -5.21128243454476   -2.02709505839069    0.01639124073963
C        -5.04035298581672   -0.64380927278781    0.25078442675067
C        -6.11322200640987    0.25693686754586    0.17943220559202
H        -8.68392066133986    4.15621107864338   -0.69658488870813
H       -10.08020754693876    3.22630140861260   -0.13477646671500
H        -8.96903619311472    3.95510769470498    1.03406179819424
H        -8.55666814796804    1.50547948833830    0.83139229197090
H        -8.28052544004614    1.70320384289898   -0.92367554014205
H        -4.45697436370754    3.14977521321004    0.68314112836915
H        -2.53923826236819    1.58668203223276    0.82468741249181
H        -1.70593749440225   -4.14482055378549    0.10605145833474
H        -0.23360097684380   -4.77421110202041    1.86912630824795
H         0.49139714062119   -6.29497737013061    3.51635885435288
H        -0.03517867074697   -7.14119606052320    2.02742996072269
H         1.14079266876067   -7.90395008787750    3.12318412304439
H         3.82414528647244   -5.44412844961051    0.69082373632664
H         3.79070844247075   -3.29990705566531   -0.57548790530188
H        -4.19992111440784   -3.89895119337195   -0.17921455689456
H        -6.19548356147813   -2.41097495073321   -0.20306241492581
H        -7.09106196377741   -0.14122101163228   -0.03768335995309
Cl       -0.65709596629213    0.11259155231995   -1.19232983602505
