66
 energy: -124.787360473241 gnorm: 0.000571884283 xtb: 6.4.1 (afa7bdf)
Ir       -0.64590472352885   -1.19458815465910    1.73403989051780
C        -2.02958864049497    0.59762811576320    4.29428848981169
C        -0.82048764697437    0.02075486200690    3.64574367044810
C        -0.22948037939557   -1.24025303185930    3.97544592783966
C        -0.68706339178023   -2.11112657546735    5.09207154062234
C         1.01657484504279   -1.34980469245373    3.25242302706089
C         2.07224577750606   -2.37947151785900    3.46648585140742
C         1.18737973681081   -0.16536199861679    2.47830090407072
C         2.42052932397606    0.22306485460484    1.74964996604460
C         0.02233259900479    0.67223213520441    2.68282818332594
C        -0.08175120372405    2.08154343012827    2.26381925401111
C        -0.09116594538531    3.07576948432040    3.24058907997039
C        -0.13656270163531    4.40044793727306    2.84771985615398
F        -0.13759647622290    5.35653980788070    3.79677952565410
C        -0.18402642147604    4.78272703586873    1.51842005685547
C        -0.18041127845850    3.77014306310150    0.57489662465091
F        -0.23679097158581    4.10322758402179   -0.73017718303774
C        -0.13019507376439    2.43171791129511    0.91757757587442
H        -2.32475873904874    1.52661055096209    3.81495290037156
H        -1.80104149888519    0.80795205204459    5.33951857093926
H        -2.86178954489247   -0.10244822269189    4.27889744797387
H        -0.29443439473070   -3.11898699404479    5.00815693461609
H        -0.31950760237491   -1.68562663065754    6.02708056785662
H        -1.77117065923241   -2.14345674160986    5.14936419247810
H         2.84659631695138   -1.95871851259697    4.10847528245274
H         1.67368314972349   -3.26585964865630    3.94809696300619
H         2.53924533155167   -2.66402189654363    2.52625037547837
H         2.83461379873476   -0.62019208026994    1.20235255015782
H         2.22585346975178    1.03419448780194    1.05420212192541
H         3.16704029505237    0.55534909900146    2.47237821376791
H        -0.03628903494271    2.83277100922475    4.28913286282598
H        -0.21797455220616    5.82040692012087    1.23104758682762
H        -0.13377724514128    1.67613861222558    0.14707551397282
C        -4.88120248323626    2.42842865198898    0.78214981128695
O        -5.18995662138257    1.27436419299259    0.01313297670299
C        -4.41461723816764    0.20531754816502    0.07531030960639
C        -3.27644738773273    0.06851952953873    0.87603065745226
N        -2.53798746739275   -1.03688601707214    0.89929643250505
C        -2.88787285564264   -2.08868044565743    0.11944640257684
C        -1.98857576245691   -3.19455613439095    0.18573922666565
N        -0.99473936729992   -3.10279513799692    1.01570553297488
C         0.00561748732771   -4.09636342557510    1.00688340814715
C         0.75521043911568   -4.30521401756606   -0.14545876472967
C         1.78400059078291   -5.23313983274623   -0.14111678624218
C         2.60862577922106   -5.41287646227677   -1.38116465011112
F         3.63112358571212   -4.52978114547529   -1.44831629692985
F         3.16772877677179   -6.62996151442706   -1.47115750648102
F         1.89823453268825   -5.23548661891127   -2.50934793793123
C         2.07142643192443   -5.96418482786767    1.00947258664484
C         1.30966106168171   -5.77923205655803    2.14325493425928
C         0.26182554006063   -4.85788789441281    2.16054939315283
O        -0.47356890471900   -4.74735530812648    3.27088144797492
C        -4.01733082545202   -2.04455062036041   -0.70601966792818
C        -4.77666972840947   -0.90031623597933   -0.73209833886274
Br       -6.31320029290984   -0.74653606684927   -1.83790013247052
H        -3.89775476876995    2.82051384548414    0.51604606124742
H        -5.64710274966303    3.15666871552694    0.52490760666459
H        -4.92952650079617    2.20708655835331    1.84978616444300
H        -2.95158930364775    0.87844830730545    1.51040866015653
H        -2.12368030436622   -4.06645987364326   -0.44364812090354
H         0.54852195400855   -3.71537014211756   -1.02500859479561
H         2.87678154868909   -6.68115089536559    1.00477957650278
H         1.50164829583674   -6.35171364171722    3.03582563488326
H        -1.25909754313780   -4.19548935319143    3.13568075937940
H        -4.27228291316015   -2.89294453332702   -1.32018279049927
Cl        0.07232547628330   -0.83250540263523   -0.50962732127407
