72
 energy: -109.666707440918 gnorm: 0.000499513395 xtb: 6.4.1 (afa7bdf)
Ir       -0.51260992062188   -0.75929062791562    1.36077457481930
C        -1.85233972001924    2.01309435309813    2.89109310210249
C        -0.67550092262655    1.15926278036090    2.55880847802268
C        -0.18552423701758    0.07766902450717    3.38754262060233
C        -0.76537091114079   -0.31978531446917    4.70304314324671
C         1.10466843225486   -0.31165864089952    2.88786303309808
C         2.06165133473725   -1.21732803982163    3.58163835171318
C         1.34412017413657    0.41683875398464    1.68721741876454
C         2.61257514174620    0.46037305514003    0.90433101633488
C         0.24779703661934    1.35530114251537    1.50445376670569
C         0.24641378315650    2.43971607245956    0.48236454095200
H        -1.54627953792942    2.76111663582292    3.62375536498176
H        -2.65746748816534    1.42832220967844    3.32898590642550
H        -2.22199705299219    2.53756454045075    2.01396024890332
H        -1.85119231095237   -0.28159719522050    4.68281130603430
H        -0.45378060885884   -1.32207550937194    4.98286814076706
H        -0.41718283028981    0.37088023847797    5.47196117925909
H         1.54429083632552   -2.00393103713541    4.12396391886578
H         2.75479732483542   -1.67501712669339    2.88165032153999
H         2.63699213557464   -0.63215064814676    4.29993719082721
H         2.40303741093225    0.53681900792208   -0.16015944124089
H         3.21773147494838   -0.42317894222046    1.08388953752802
H         3.18660918534832    1.33973376022718    1.19785483038188
H        -0.69930536067139    2.97266180803656    0.46563183361213
H         0.43219413416017    2.03090165159683   -0.50896336481908
H         1.04298876811905    3.14863717923494    0.70862428556687
C         1.92207905710269  -10.32806569380811    6.33172325789107
O         2.93579944575492   -9.38608721105988    6.05130238614773
C         2.68515537197328   -8.40466948657109    5.14452468423222
C         3.71829811677557   -7.48602637406478    4.93768324261719
C         3.56754562048850   -6.45091755981390    4.04330980220253
C         2.37865113040423   -6.28769736024118    3.32922749583120
C         2.21540598181241   -5.17724677961565    2.38055848045667
C         3.27215559532440   -4.76956728500917    1.56455578071476
C         3.11550590361652   -3.72060692755813    0.67472829063890
C         1.91158088676319   -3.04631334858318    0.58739580155458
C         0.84557892143141   -3.44901456745688    1.39031790556347
N        -0.37696063956054   -2.76949363508434    1.29410379930231
C        -1.48208799781928   -3.43318915253603    1.15254804222307
C        -2.68343150188981   -2.67060643867543    1.04110875169984
C        -3.94926566323944   -3.20456675467329    0.77559691711486
C        -5.01942392085331   -2.35693725530903    0.62010246479417
C        -4.81865627913497   -0.96899639088788    0.72450637060987
C        -5.91010779723879   -0.04703905668459    0.55462077453711
C        -5.96387089060499    1.33219401251627    0.56799336091398
C        -7.30715137659677    1.67941780686987    0.33455393958327
C        -7.98080831825575    0.49834271011885    0.19568853848768
O        -7.15261122321451   -0.54033512638949    0.32543539896492
C        -3.52344773311537   -0.51600171022580    1.00076106913416
N        -2.49553321339753   -1.33127456542948    1.16394897101346
C         0.99761137619541   -4.51097897549418    2.27762085913849
C         1.35633941741348   -7.20779450875444    3.53940648393513
C         1.50065766586703   -8.25710745977179    4.42887621628386
H         2.34072974820845  -10.99224658843824    7.08565433430650
H         1.65942014632932  -10.90917788022180    5.44282279862284
H         1.02737423198216   -9.84208709060165    6.73227050647841
H         4.63189120014487   -7.61091632463002    5.49718344298200
H         4.37345116489640   -5.74464941617219    3.91443269140283
H         4.21451103031507   -5.29197917353804    1.61549314290411
H         3.93873316257406   -3.42750248127269    0.04121198133553
H         1.76531051671849   -2.24230638016706   -0.11627884886104
H        -1.49051921012668   -4.51337945591596    1.06930615160717
H        -4.06453203197302   -4.27222102569384    0.68279755146712
H        -6.00615894401716   -2.73665911175650    0.40897336659458
H        -5.15141053202172    2.01152240398907    0.71788702557258
H        -7.71875813630253    2.66546341720629    0.27643272648348
H        -9.01471028913542    0.28491844374409    0.00821078217875
H        -3.32519658843671    0.54060377610219    1.08597031318711
H         0.17579274225207   -4.78783131118530    2.92009294992410
H         0.43683251799742   -7.12639668185238    2.97961175135422
H         0.68811488021402   -8.95514961267008    4.55249252858344
Cl       -0.51181681725672   -0.76533254434347   -1.03326858670737
