80
 energy: -117.030699121031 gnorm: 0.000686653092 xtb: 6.4.1 (afa7bdf)
Ir       -0.02736494668554   -0.70572370149955    1.84587809354859
C        -1.41804359825327    0.73461006855770    4.56327941714714
C        -0.18412560064874    0.36752683935113    3.81344569287584
C         0.58495265524566   -0.81172134916992    4.04803748979769
C         1.77739785147736   -0.73603052991236    3.23770090172884
C         2.99400178031570   -1.58693336372083    3.39809334054257
C         1.75550408122780    0.50820183440553    2.53458634153075
C         0.51765206317914    1.17698878434007    2.84854892167420
C         0.20024148718209    2.56562284696357    2.48752346757618
C        -0.05017176657874    3.50396624495385    3.48882478458536
C        -0.29785512003175    4.82257787652337    3.16468752097797
C        -0.30446541931294    5.24562819745202    1.83605624120808
C        -0.55425299089629    6.65504966212726    1.49944398176590
C         0.19430777104964    7.28964583934695    0.51015417817447
C        -0.02858377807676    8.61935382511726    0.20333687337100
C        -1.00715410054731    9.33483180674272    0.87418032759475
C        -1.76073126033463    8.71232238824402    1.85602786333338
C        -1.53472277636621    7.38451749620085    2.16915528069301
C        -0.05720784285354    4.30352090392215    0.83848280473821
C         0.19269292892493    2.98339122273183    1.15687251951040
C         2.88576862247991    1.07689658955201    1.75397402370097
C         0.31827163231001   -1.77258513923856    5.15579308854117
H        -1.14323889488352    1.02996112961198    5.57665731382837
H        -2.09551297392228   -0.11275114158329    4.64306050229439
H        -1.93705706433391    1.56461635866003    4.09295426981479
H         3.59505793360000   -1.18183078096129    4.21413793006314
H         3.60071287116288   -1.57654534211781    2.49669049039239
H         2.73799265771543   -2.61169414850621    3.64957916149013
H        -0.01585140233035    3.20672368159256    4.52518605535849
H        -0.46279822636678    5.54183517349763    3.95267032517526
H         0.97042948139794    6.74418150906842   -0.00659954670944
H         0.56409813131972    9.10105519328498   -0.56097577715530
H        -1.18155887692449   10.37298152416352    0.63266888681108
H        -2.52746013277425    9.26511172501436    2.37927029392096
H        -2.13729141415496    6.90362702090355    2.92603355785187
H        -0.07550820416800    4.60609471414726   -0.19769263318788
H         0.36515554647729    2.26301513764554    0.37127884341703
H         3.05341138470304    0.51169575978037    0.83765538318377
H         2.68016932104730    2.10970265953637    1.48486123639216
H         3.79707893208981    1.03343153637564    2.34991322815464
H        -0.71174573644424   -2.12135101810466    5.14581753158127
H         0.98737222556089   -2.62637220684100    5.11940990824448
H         0.48085302361002   -1.25713742058276    6.10352084790119
C        -7.54353962563442   -1.09074475912146   -1.78396595924743
O        -6.26326251164305   -1.13659375900958   -1.15338556093489
C        -5.81184754099550   -0.01042703525503   -0.61724102541288
O        -6.40882240755648    1.03978762765599   -0.61587464382092
C        -4.45964901204690   -0.18562003487865    0.00069358101386
C        -3.84647206846131    0.91085748986115    0.61235503347213
C        -2.59799554305158    0.75588117249390    1.18204557422077
N        -1.95287433489034   -0.40878742711912    1.18330636478129
C        -2.52638186851456   -1.47242263727603    0.57611850579082
C        -1.71348454789610   -2.65658438999199    0.57578981283085
N        -0.56348169372177   -2.62413571864431    1.15374380182829
C         0.25319000847280   -3.81571744629292    1.08042826729819
C         1.62800758050035   -3.51154206444511    0.48199104507176
C         2.36562742643218   -4.82741742340772    0.20021604294429
C         2.00440305905587   -5.91810002927820    1.21810976871528
C         1.68260950711728   -5.29044362526501    2.56991481872766
C         0.41291643332009   -4.43604448722321    2.47949910949380
C        -3.78136711802761   -1.39519704632881   -0.02515750690575
H        -7.49071186249554   -0.48806563730108   -2.69199749947802
H        -8.28099595968303   -0.65168174511115   -1.11037737429279
H        -7.79709804832178   -2.12012505025273   -2.02063232740182
H        -4.35267640227214    1.86276749493252    0.63137871454528
H        -2.09729423208627    1.59711385334554    1.63834234449069
H        -2.07216855343120   -3.54344619766485    0.06252152909105
H        -0.24479680421185   -4.53583630516713    0.42014992626197
H         1.50953427677865   -2.94481538633959   -0.44063144689087
H         2.18904128881428   -2.89369848121743    1.17963562134813
H         2.12549307119240   -5.17892775518949   -0.80412704194489
H         3.43885932131547   -4.63672043200474    0.22841038311336
H         2.83524132414856   -6.61721562112620    1.31789106355355
H         1.14125928823241   -6.49012513652825    0.87316872265825
H         1.54180766091926   -6.06778912665551    3.32152769683086
H         2.53649227557410   -4.68627100238899    2.87779481685330
H        -0.46434516706998   -5.04857949986611    2.68941073108669
H         0.44406336904150   -3.63455679803071    3.21464627619883
H        -4.20927488496384   -2.26017506968852   -0.50490094669431
Cl        0.55468204095270   -0.33191691759721   -0.42913118253304
