62
 energy: -109.083878084623 gnorm: 0.000459727839 xtb: 6.4.1 (afa7bdf)
Ir        0.23977064075226   -0.76150765019138    1.82194943466098
C        -1.53753253893370    0.57805078710035    4.36905574380822
C        -0.21106010217568    0.29455987853391    3.75580862250969
C         0.60983184526149   -0.83145173354915    4.07766562604352
C         0.27697113785691   -1.82277580194450    5.13870180862516
C         1.86753947019332   -0.67664981886227    3.38974837081678
C         3.11158557146865   -1.47192729264862    3.60056529694748
C         1.83878569759760    0.57001426647927    2.68668454058581
C         3.01195334658044    1.21076594376974    2.04127892057748
C         0.53246648677870    1.15175943058803    2.86555223720928
C         0.17048387380750    2.51978947241525    2.46335988699126
C        -0.23142076574946    3.44014027864787    3.42950918234843
C        -0.50850220655758    4.73862330180135    3.04423737800541
F        -0.88848818529047    5.62399404522844    3.98630155142569
C        -0.40778293229594    5.16507578611754    1.73176956314207
C        -0.01252899187335    4.22524289952316    0.79533259685466
F         0.09176191827329    4.60316173594419   -0.49406848235343
C         0.27838298033262    2.91653934725241    1.13125076982302
H        -2.06146332978615    1.36820543760176    3.83932690443359
H        -1.38954298186816    0.89530377164431    5.40218727383073
H        -2.15806554712919   -0.31460952877508    4.38953124628220
H         1.05269694879995   -2.57468191105235    5.23877426579743
H         0.19040557999558   -1.29455132040187    6.08868195606306
H        -0.67728825260064   -2.30910092490111    4.94947697625302
H         3.74549882837823   -0.94808597208752    4.31710892567667
H         2.90005070697825   -2.46178661978369    3.99011503435352
H         3.66500187359994   -1.57005074458669    2.67019542008262
H         3.35494798180259    0.62885548418822    1.18742517239541
H         2.76678712249679    2.21130825304110    1.69783636487934
H         3.83005647059424    1.26454455518746    2.75907441699873
H        -0.30147784685072    3.16867970513899    4.46958555968377
H        -0.62634737767160    6.18192011425467    1.45171244945884
H         0.57340702980648    2.21434078268705    0.36645840356539
C         3.88408589908158   -6.30149394637020    4.02818764710234
O         2.84119592754648   -5.36323762980054    3.82176824113820
C         2.50670334492294   -5.01851082803381    2.56330811681009
C         3.11886749384926   -5.49812275601334    1.40405954239299
C         2.68512371674605   -5.06534960769727    0.16230487513321
C         1.64698189044607   -4.16239906267028    0.06466994533505
F         1.23431625838498   -3.75460115232422   -1.15483628132886
C         1.03193293348053   -3.64487697834061    1.21171465757465
N         0.01784625652155   -2.68013341847376    1.12571028575197
C        -0.98462319217300   -2.87800513081132    0.32689968531299
C        -1.91708485124100   -1.80585259454369    0.16603461240392
C        -3.04424864792496   -1.85508588680719   -0.65990763193378
C        -3.85258698402261   -0.74367765649515   -0.76815519303360
C        -3.49827294196495    0.39748243103385   -0.04769082438638
Br       -4.55738764453655    1.97351929507562   -0.13763715193207
C        -2.36661993107976    0.38633845975056    0.75588359570429
N        -1.59993892852137   -0.69050920283960    0.87136474943144
C         1.46723574859461   -4.09316511085109    2.44985248912921
H         4.83172403561637   -5.93317668329877    3.62781475183237
H         3.64194763100094   -7.26838106100040    3.58088338150193
H         3.96332481828186   -6.41074105022053    5.10760502481873
H         3.92699715727986   -6.20827425905091    1.45333162535972
H         3.14655649680478   -5.43040722637007   -0.74125809613725
H        -1.11263381560196   -3.80741639530190   -0.21573170678104
H        -3.26508571809979   -2.75591297840038   -1.20978469784161
H        -4.73039685123648   -0.74748246815492   -1.39461908261901
H        -2.08071282493021    1.26928581463752    1.30829957409410
H         0.97056292667570   -3.75225547953500    3.34131674335346
Cl        1.10998834347609   -0.35619039540304   -0.35100829598006
