60
 energy: -87.399751514993 gnorm: 0.000291933214 xtb: 6.4.1 (afa7bdf)
Ir       -0.73658941424614   -0.74155004999177    1.12040452329771
C        -2.28349468008935    1.40104254268920    3.38868879446098
C        -1.09725229519489    0.61142024438670    2.95318143146496
C        -0.86126656178198   -0.75954924390387    3.34503774483670
C        -1.73344418187302   -1.54558587665503    4.26428112790633
C         0.49348578439531   -1.09358152219866    2.99514110876345
C         1.23472596298809   -2.28072561666781    3.50606473618729
C         1.03017826632372   -0.00395434448999    2.25137748195127
C         2.43753704313168    0.16514332540575    1.79100356038613
C         0.04211563394572    1.06586638594805    2.24790295664854
C         0.33353275744631    2.44919488245506    1.77045054278359
H        -2.22242775590582    1.54934108647642    4.46746717261907
H        -3.21218472805420    0.87571368034037    3.17749928578655
H        -2.31847614937066    2.37437369349695    2.91047894369909
H        -2.78250427628199   -1.31509505598824    4.10184777203879
H        -1.58111121741723   -2.61335761028320    4.13499500949909
H        -1.48641044285261   -1.29177449898083    5.29606041263086
H         0.61412906695490   -3.17314343289264    3.51123699234198
H         2.13985190462377   -2.46643168870077    2.93478140026145
H         1.52921268388457   -2.07769019943364    4.53687324686635
H         2.46602725692950    0.68245746421207    0.83493268243618
H         2.94036291215137   -0.79135091749565    1.68367628328552
H         2.98583935973408    0.76483858174873    2.51856923016986
H        -0.52014276052970    3.10723076722699    1.90447250384427
H         0.61303079649869    2.44280256222716    0.71763277889871
H         1.17442398921819    2.85388776528864    2.33328204359291
C         2.64862991511968   -3.42226082387810   -3.45574081807071
C         2.91206853040416   -4.23382455858840   -2.44866774489129
C         2.18733822570262   -4.31021881017811   -1.13753637274089
C         0.99054817993460   -3.37230042677618   -1.02218793896674
C         0.30093890176332   -3.53406218936156    0.34187345009607
N        -0.82207049605808   -2.63258161621969    0.43233205969856
C        -1.96189049681454   -3.02650709133769   -0.02963613736700
C        -3.01139580813441   -2.05718869166201   -0.11729723854611
C        -4.29838944661447   -2.34982101692567   -0.61129747404560
C        -5.21092746878766   -1.34134077527184   -0.72948046716946
C        -4.81645621081318   -0.01537550056863   -0.43754031579164
C        -5.67959582641541    1.07879478783936   -0.62930318922939
C        -5.23301723368514    2.35626289193053   -0.40568486283481
Cl       -6.28770014179076    3.70615645419446   -0.65592832093773
C        -3.90796036881942    2.59177310951529    0.00169308012518
C        -3.06236351879806    1.54076876003091    0.22529697433724
C        -3.49107006339159    0.21206094556014    0.03648536229478
N        -2.64616758799327   -0.82318852488028    0.26277075871260
H         3.23361830081955   -3.44631362781078   -4.35981445039392
H         1.85274984175791   -2.69851266460913   -3.43239598312674
H         3.73189822831281   -4.93743251090690   -2.53273185905900
H         1.86056293236542   -5.34489581606444   -0.99412268254371
H         2.90723610752275   -4.09298686209160   -0.34302159159053
H         0.27296315195096   -3.59234034633989   -1.81397314693611
H         1.31285555662448   -2.33732227391050   -1.13483604798648
H        -0.04008940951471   -4.56780055663243    0.45678992680661
H         1.01574309021386   -3.30093999261290    1.12902895948501
H        -2.11203563770556   -4.03609695155545   -0.39651386238634
H        -4.53954142510347   -3.36620528735185   -0.87581647897219
H        -6.21640317634513   -1.53126819643455   -1.07078321842591
H        -6.68556717444785    0.89994790283204   -0.97363331260872
H        -3.56973131142783    3.60787580475238    0.12509603292229
H        -2.03314675486872    1.71272554871452    0.49425134881937
Cl        0.01190064039717    0.05441698237681   -0.99893820532776
