72
 energy: -119.738119194272 gnorm: 0.000258204480 xtb: 6.4.1 (afa7bdf)
Ir        0.12735380782527   -0.34830466793703    1.87943288137839
C        -1.43468838418450    1.33025557988088    4.45203322568603
C        -0.18477739833886    0.82405181272927    3.82802575828123
C         0.37805688960833   -0.47177269490200    4.09447319993813
C         1.67913097602626   -0.52235764875001    3.48699900736697
C         2.73778920820258   -1.52814980838646    3.76976040371266
C         1.87989256691218    0.70159974621264    2.76820927239256
C         0.71940311956225    1.54342306912333    2.98322210920441
C         0.67407663636610    2.97710660542348    2.66758363514762
C         0.46225136613696    3.89787791331320    3.69316267923018
C         0.49751255550468    5.25251555975665    3.43297988249557
C         0.74690132117277    5.72931536871020    2.14709550723775
C         0.79850043696899    7.17435640387270    1.88037106481627
C         1.78011033342954    7.70752292706491    1.04728191534144
C         1.83749220958108    9.06843214567335    0.80869419480402
C         0.91082309544225    9.91775652120297    1.39133635750624
C        -0.07380214086634    9.39736077243781    2.21552409190148
C        -0.12790339262955    8.03777831002810    2.46195577857969
C         0.95092530488439    4.80451211847616    1.12423104809109
C         0.91550521568008    3.44841467146499    1.37838201885954
C         3.16637086992149    1.12417039771079    2.15344500044064
C        -0.16492122753855   -1.45701957609776    5.07163742735084
H        -1.26793965054757    1.43709677914407    5.52470013082756
H        -2.25516867219003    0.62769692514597    4.32160849010463
H        -1.71984992208488    2.29367986598075    4.04224512534221
H         3.26200882625991   -1.22000719161459    4.67588456835892
H         3.46015993209732   -1.57960107487661    2.96111566554968
H         2.32371648719977   -2.51751089327674    3.94023938918997
H         0.30622509727505    3.55333138105554    4.70327136273191
H         0.35603658094103    5.95379428724438    4.24137037873762
H         2.51637743307232    7.05441571402554    0.60181407487376
H         2.60937334426203    9.46993128264961    0.16801173967251
H         0.95618706885727   10.98060112676733    1.20401602581149
H        -0.80172967406391   10.05527354307191    2.66776239250084
H        -0.90719087920698    7.63860160398042    3.09415879873491
H         1.12252080216580    5.15329964503289    0.11706435718474
H         1.04764996062726    2.74539094539831    0.57011649453636
H         3.44573021582660    0.47039476949481    1.32996356015449
H         3.09448634946507    2.14101203202930    1.77892138737674
H         3.95446877459152    1.07297315996125    2.90420662626382
H        -1.25110193540731   -1.46634545047193    5.06021249987935
H         0.20550545606998   -2.45674198352231    4.86402061974200
H         0.15938225374935   -1.17758067418102    6.07477522439509
C         0.93918143361166   -6.94222912326854    3.30471755395732
O         2.12159647956160   -6.46748007637909    2.68433439312769
C         2.10924134501592   -5.26391303165746    2.08856184757884
C         1.02283620248451   -4.39714272401804    2.02947212386119
C         1.14083585382431   -3.15682546096318    1.39695202042144
N         0.03973766254160   -2.29393624061906    1.31341463001173
C        -1.09785307103495   -2.75817418166169    0.90243473786929
C        -2.16558876736694   -1.82639499979317    0.72377473911645
N        -1.89460067796484   -0.54894241333912    1.09020855124942
C        -2.78855514020310    0.39147846614183    0.79448095287625
Br       -2.36233339410050    2.17941201760934    1.19103122526610
C        -4.01613443865933    0.12149021360021    0.19954885323449
C        -4.33490371211846   -1.18569667046647   -0.13440707005042
C        -3.38701657325513   -2.15783588278680    0.12323902483693
F        -3.61268414268081   -3.43167957023441   -0.20730803974645
C         2.34077772682437   -2.76420821530550    0.81174522803186
C         3.42153139725468   -3.62869282380263    0.83798717052858
C         3.30330485829076   -4.84804864025512    1.47029016248415
F         4.36519954972800   -5.67536991638142    1.50474762353921
H         1.19520137170925   -7.92560909247389    3.69270803716351
H         0.12500862605267   -7.03667367562468    2.58228968912212
H         0.63943741266487   -6.29229771266980    4.13018806701483
H         0.08669746560005   -4.66249062842148    2.49372980005646
H        -1.22781674152210   -3.79489979236831    0.61309662512623
H        -4.70502551127418    0.92790023037240    0.00554751046723
H        -5.27593266900946   -1.44286085267177   -0.59440857569659
H         2.39888470499183   -1.81498898911615    0.30404943645064
H         4.35866465479168   -3.36854973182931    0.37318248141929
Cl        0.61259587561569    0.21859919836862   -0.38251717104020
