56
 energy: -89.022907664061 gnorm: 0.000330575931 xtb: 6.4.1 (afa7bdf)
Ir       -0.61611140340737   -1.15371239743543    1.62585494834686
C        -2.09337233437342    0.79470900566998    4.13658015516532
C        -0.92720884615499    0.06616804378757    3.57200029791431
C        -0.64678990482256   -1.32341134187303    3.84920905000290
C        -1.46785531235960   -2.19046203715678    4.74003355292222
C         0.69052499147000   -1.60581627639394    3.40323301673448
C         1.48555882346896   -2.80651724394165    3.78019809181798
C         1.17162165309542   -0.44623507312223    2.72095715151035
C         2.55256401966989   -0.21254586112389    2.21734658561680
C         0.16279578322946    0.59535858109493    2.83664033067379
C         0.40024706690767    2.01566921243303    2.45487085944956
H        -1.99252172169678    0.81172120924849    5.22228781364440
H        -3.03034140219451    0.29644502104475    3.89943217363840
H        -2.14174141620151    1.81552019157177    3.77443602718505
H        -2.52834105445503   -1.99360027373414    4.60873361212246
H        -1.27369832581156   -3.24303641292644    4.55463795465955
H        -1.21197394899553   -1.97753954558640    5.77900800540116
H         0.86695725039127   -3.69747627115949    3.84029809353062
H         2.29634945684482   -2.98688712023711    3.08112621771484
H         1.91888277118644   -2.62983663515117    4.76548858986985
H         2.53057096522078    0.30673047820678    1.26181415963256
H         3.09796882265849   -1.14417507629692    2.10261154478371
H         3.08662754678978    0.41901295476244    2.92776123512632
H        -0.51054218324256    2.60146529801489    2.52582166036568
H         0.78048214856299    2.07907617320634    1.43778033472968
H         1.14820548436963    2.44468901135468    3.12182178182384
C        -2.53886070540468    2.38620306654468   -0.53011149116056
S        -2.69406940820155    1.45681053076026    1.02450501632233
C        -3.27709861227682   -0.09499404526346    0.43080247286168
N        -2.52443558792048   -1.16317847223580    0.69363324545694
C        -2.86748556973933   -2.36396924420273    0.16012421429805
C        -1.87625240683934   -3.37594193549294    0.32680992809654
N        -0.75510232923238   -3.02395889044753    0.88165474225868
C         0.28521635112309   -3.96140546257557    0.96513310182640
C         0.05061895236818   -5.25242807509881    1.44230251838108
C         1.08364428577393   -6.16814000249473    1.49710969763711
C         2.33928920446066   -5.78688910172030    1.05205678233399
F         3.34460204842275   -6.68151039173784    1.09390228879976
C         2.59362074408134   -4.51184949144797    0.57094229168669
C         1.56264825143281   -3.59298659499164    0.54015873217227
C        -4.03746017214085   -2.53824189406227   -0.58504831926964
C        -4.86700564430115   -1.45743195134272   -0.78645772437772
C        -4.48232987331589   -0.20987986510647   -0.27990366597904
C        -5.34118954493397    0.90069058864716   -0.44405728328707
N        -6.06317365220127    1.78175321445563   -0.57430276576872
H        -1.82829414097934    1.86762318896499   -1.16658029540457
H        -2.14574759260887    3.35657707863799   -0.24520455527980
H        -3.50280296064927    2.50518500710290   -1.01166340792288
H        -2.02258320700505   -4.36890532928356   -0.08121059353442
H        -0.93143890553772   -5.52715209186975    1.79473920706722
H         0.92797794438460   -7.16661895500811    1.87261742491960
H         3.58326582092103   -4.25728448650705    0.22699317812501
H         1.72243868375133   -2.59783737849540    0.15428182324935
H        -4.27261612376513   -3.50656321795480   -0.99440809616182
H        -5.79534476330891   -1.55148183885867   -1.32833584277433
Cl        0.09535498355285   -0.33109357325060   -0.49563686891178
