78
 energy: -120.197141290361 gnorm: 0.000247055110 xtb: 6.4.1 (afa7bdf)
Ir       -0.45354703409020   -0.94192213934164    1.36711650633522
C        -1.86942522577096    0.94394923994710    3.85664242591122
C        -0.66595216911790    0.31600932007207    3.23867939804932
C        -0.21971667790117   -1.01066430482231    3.59589870341095
C        -0.86635789379632   -1.86278653648760    4.63479218789555
C         1.08974601067580   -1.20410058345040    3.03566462956504
C         2.04157988306824   -2.29884558238372    3.37263285542485
C         1.39569431857047   -0.06301479194188    2.24444436486887
C         2.70525184422396    0.20289476646730    1.58576843112719
C         0.30487897469005    0.89574442696697    2.37121447819435
C         0.42339194011988    2.31853861126371    1.89452776910021
C        -0.76158580520902    2.83231198066434    1.06993890827013
C        -0.45358029593425    4.23577234236899    0.55398512840057
C        -0.17914719306846    5.18525984947119    1.71799768055353
C         0.97450734875316    4.66710488322989    2.57313946491826
C         0.68022634627893    3.25881493138183    3.08335248545115
H        -2.72954170310103    0.27990362662995    3.80289431775332
H        -2.11629833379669    1.89371615414348    3.39670058413170
H        -1.65861454536032    1.12107989882057    4.91202327041899
H        -0.53512016627215   -2.89407388073480    4.56283517463142
H        -0.59285203134621   -1.48725217433380    5.62159724279305
H        -1.94915661726249   -1.83368376730504    4.55232154488429
H         1.53176849383047   -3.14310297564217    3.82407679638279
H         2.58122739490525   -2.64296435537242    2.49333422044705
H         2.77121871840030   -1.91535146402131    4.08680541463339
H         3.28013586218037   -0.71250263056597    1.47991829941939
H         2.56635253814908    0.63292828414237    0.59591793647400
H         3.27953260025775    0.90813447575469    2.18736704773668
H         1.29963677191587    2.36556915048001    1.24128207493013
H        -1.66344701657768    2.88227709232513    1.68093736260612
H        -0.93403620830571    2.15453697123756    0.23198772426888
H        -1.29273738130181    4.60711884605374   -0.03764835876866
H         0.41980619401729    4.20013430623552   -0.10064718665112
H        -1.07627934312831    5.27662831135809    2.33477189141695
H         0.06176647549816    6.17896805014688    1.33559474594404
H         1.13947303504088    5.33623700773859    3.41997759528941
H         1.88929506679394    4.65585719110023    1.97589553753649
H        -0.19398398411013    3.28549225885491    3.73420947474618
H         1.52507166013512    2.89246622083678    3.66920910911202
C         0.07642030744533   -2.45971587998734   -3.44920355288374
O         0.22391714475621   -3.12100319613294   -2.19444737423421
C         1.41885647661157   -3.06222825865262   -1.60709267936448
O         2.39295209183514   -2.53249980644918   -2.08180636108128
C         1.43287582233030   -3.84675585605446   -0.33290844086439
C         2.48307130938111   -4.72928594477469   -0.15192554667573
C         2.54442408960735   -5.57442782605470    0.96113287229828
O         3.60332910865732   -6.40316426443640    1.01661549387479
C         3.72501353142395   -7.29433311256084    2.11215103396827
C         1.52274765128137   -5.50458871489771    1.90922683244420
C         0.49952712225050   -4.58825929705837    1.75643636504809
C         0.43548843297084   -3.74999782288960    0.64805985066313
N        -0.60661070134123   -2.80716465601467    0.56759929897992
C        -1.64988374761159   -3.04457486032479   -0.15709862281952
C        -2.65484485178840   -2.02777935378067   -0.18503278305576
C        -3.81050193219218   -2.08137349700091   -0.97099340643592
C        -4.68180792748202   -1.01938364274452   -0.94659626311272
Br       -6.26141378576315   -1.00019024586532   -1.99939857561285
C        -4.40768766161285    0.09834801046101   -0.12470575023994
O        -5.28767626242993    1.08924634586979   -0.13553332792390
C        -5.05191060665895    2.25631044588735    0.64000839411364
C        -3.23925199575546    0.05719690478586    0.63928920203753
N        -2.38819126166787   -0.96467103420078    0.61029730236086
H        -0.07712744408534   -1.39257067122977   -3.27924705441078
H        -0.79257099357185   -2.90261102526244   -3.92742272028049
H         0.97091117460218   -2.60019431936957   -4.05765874274541
H         3.26411682368348   -4.78593504381069   -0.89317842270959
H         2.88131857286112   -7.98765721149744    2.15372900398177
H         4.64186092006217   -7.85097485067055    1.93023736455051
H         3.81069724406486   -6.75058275658576    3.05606632814178
H         1.51874316770347   -6.15423489787214    2.76876904546860
H        -0.28655485944252   -4.53202385234550    2.49310732086533
H        -1.75751109549604   -3.96323304479207   -0.71971586340793
H        -3.99862159522213   -2.93859144129934   -1.59658301099310
H        -5.05428213678889    2.02043181300055    1.70599577231681
H        -4.11048934492455    2.72937302834030    0.35418606917427
H        -5.88056215908207    2.92319642675528    0.41244878510830
H        -2.98114711566951    0.87640146074258    1.29068728059133
Cl        0.11315163510345   -0.22466106256519   -0.82630035474345
