78
 energy: -125.403577223413 gnorm: 0.000831932919 xtb: 6.4.1 (afa7bdf)
Ir        0.03453301416863   -0.13413388123755    1.61780748996221
C        -2.67468335661817    1.10298308218240    3.13586061331579
C        -1.32049101923750    0.49484162923507    3.26411280033242
C        -1.04475230287308   -0.89631974411134    3.43729999280214
C         0.37389644184786   -1.04816613346767    3.61837215649309
C         1.06609921108972   -2.29509721450965    4.05485940200653
C         0.96325611547159    0.26498490939545    3.65138202454179
C        -0.06969416466455    1.21753334807417    3.39072675119730
C         0.09202409524571    2.67422417946747    3.46831973197684
C        -0.73065382788036    3.43354519511098    4.29939354122636
C        -0.55577034146840    4.79938179878971    4.39585454876648
C         0.44267804439583    5.44818124439134    3.67013521814456
C         0.62192017466827    6.90378053198268    3.77505867360214
C         1.89688041713643    7.45965510624221    3.85560141423536
C         2.06140732437527    8.82877628133517    3.95590419452775
C         0.95640857910996    9.66448359734165    3.96890293131754
C        -0.31556683766161    9.12228347616283    3.88451817065575
C        -0.48275688752614    7.75314155316958    3.79227248716419
C         1.26728180219217    4.68456949976290    2.84488668018080
C         1.09654266076460    3.31813342606908    2.74381821841663
C         2.37009209282040    0.56395388970898    4.02646294158893
C        -2.05273494793151   -1.98428309213736    3.55762757293628
H        -3.15491567072279    1.12541195603252    4.11464948512265
H        -3.30624791211558    0.51681362706308    2.47249285022562
H        -2.61016818028265    2.12018669040149    2.75934548716503
H         0.98604174174830   -2.38559565181087    5.13874315608975
H         2.11980585225904   -2.25728491826394    3.79378347154952
H         0.61478952483140   -3.17643255856360    3.60722353909031
H        -1.48611305399791    2.94761894979213    4.89612257151218
H        -1.18569480587005    5.37085085219661    5.06069483626566
H         2.76358517747662    6.81495291012325    3.86151853015703
H         3.05501911113282    9.24738507272765    4.02537266974692
H         1.08576785040477   10.73413970396614    4.04563312475550
H        -1.17976427757884    9.77040846028309    3.89045397732594
H        -1.47753987035366    7.34023637925875    3.71201677581320
H         2.03688334913567    5.17055685732002    2.26437331009424
H         1.73335487760466    2.74219044112537    2.08751875058463
H         3.05453720210036    0.28244784211376    3.22648259216210
H         2.49372051987858    1.62536812936558    4.22460176192906
H         2.63909525564959   -0.00453873541994    4.91490450557919
H        -2.98247639511351   -1.71905304476186    3.06326390222640
H        -1.67916020603157   -2.91677419764386    3.14116339977609
H        -2.26422538228337   -2.14982556067559    4.61460216936539
C        -2.29116570532409    2.68725207686216   -5.90880685592024
O        -1.94468762072222    2.13550796108687   -4.63762502125935
C        -1.71366651533214    2.97140021319166   -3.63561794521534
O        -1.76928591189360    4.17585223035004   -3.70531292559978
C        -1.35763037648106    2.24237724542545   -2.37532744699159
C        -1.05698371405392    2.98178154497963   -1.22865228840127
C        -0.71524609978180    2.31693248676764   -0.06606328481242
N        -0.66690465316913    0.99002942008627    0.00831637327673
C        -0.96275111170858    0.25960801481507   -1.09543413124740
C        -0.85284985203582   -1.15695787188578   -0.89935693795900
N        -0.42631261775864   -1.55863684637137    0.25497199024783
C        -0.30831416239194   -2.93535857355319    0.50937366800338
C        -1.40979308684515   -3.77247822628218    0.36157002149976
C        -1.26791782066320   -5.12592961151988    0.62162936049313
C        -0.03720162577568   -5.62313526901413    0.99235984981490
F         0.09189704428789   -6.94471053867740    1.22950908397761
C         1.09594988132046   -4.80095083163439    1.13308040697874
O         2.24526752766357   -5.40285092530391    1.48191256049315
C         3.42255451336472   -4.62112139736771    1.58145397787255
C         0.93095929698004   -3.43894016357453    0.90324092293693
C        -1.31102237572866    0.85792416945166   -2.30601236961578
H        -1.89276790730360    2.00962204836135   -6.65922795684004
H        -3.37677069964229    2.74646581503047   -5.99127021831144
H        -1.86394191662559    3.68454808987624   -6.01674275338664
H        -1.09414264605649    4.05872530602158   -1.26356721912364
H        -0.46583515023383    2.86775566175545    0.83036327910891
H        -1.08397507831785   -1.85440316871846   -1.69591867532694
H        -2.36661960860208   -3.36938704342705    0.07369977121858
H        -2.10176757901317   -5.80297986298552    0.53098758396360
H         3.32981698773206   -3.86929550484405    2.36763438714386
H         3.65669067063612   -4.13752230340728    0.63025566239173
H         4.21196159982465   -5.32337695662080    1.83903081316072
H         1.75834643183015   -2.75272933113356    0.98397367749199
H        -1.52884087602602    0.25181227878487   -3.17020421995129
Cl        2.15188976255801    0.01237397641331    0.55885343875569
