77
 energy: -132.235307868478 gnorm: 0.000483932533 xtb: 6.4.1 (afa7bdf)
Ir       -0.99077947483843   -0.76389732963163    1.49488510777112
C        -2.20143162704149    1.39556738425976    3.84780621175199
C        -1.11608087027662    0.47914963515954    3.40237419212473
C        -1.07315356582269   -0.92958570592372    3.71473329384453
C        -2.06216764743263   -1.62544587056783    4.58913150853601
C         0.20687873084085   -1.42619231913020    3.31078765020066
C         0.81382738699082   -2.73459055650023    3.67171303814294
C         0.89592350720502   -0.37973259473579    2.62612721658814
C         2.32041994326709   -0.45026838894434    2.20105384127645
C         0.08589515700400    0.82235216505176    2.72164507123706
C         0.56862555218592    2.17284834135423    2.40251060808278
C         0.51199870185589    3.17011611826037    3.37504942253590
C         1.01852744475185    4.42230759633429    3.08368347823938
F         0.95771018292041    5.37970903023769    4.03174882827379
C         1.58485493425695    4.73298445972932    1.86025570833947
C         1.62601729249301    3.72136941843799    0.91606207442836
F         2.16283765937304    3.98976289888984   -0.29160187626751
C         1.13118076259161    2.45431435892600    1.15815548189161
H        -2.11789016035705    2.36557849795492    3.36820465704574
H        -2.12717083202443    1.53025335779582    4.92758115921187
H        -3.18115654688569    0.97094131570016    3.64023659795671
H        -1.92136278560693   -2.70156113409662    4.56436180956390
H        -1.92701429921633   -1.29099534155601    5.61818199326395
H        -3.08187644721308   -1.39004083198539    4.29415465497785
H         1.40555180001245   -2.59608489539180    4.57794895518323
H         0.06441857737599   -3.49289208719025    3.87667842573899
H         1.48276170086799   -3.08849901277480    2.89133391830004
H         2.46886823294801   -1.20266884393473    1.42811335640374
H         2.66295124239153    0.50616217038033    1.81745702749068
H         2.93686791859730   -0.72806348378546    3.05600062343160
H         0.10883674893797    2.97817550706062    4.35542520976712
H         1.97588574630955    5.71490821492611    1.65243802160759
H         1.15199792327296    1.71213686759046    0.37534509421877
O        -1.50504316341311   -5.13167882481527    2.18054380452457
C        -0.45452991143629   -4.82512945690868    1.40896823777527
C         0.57093399899125   -5.76816783165860    1.32028600805210
C         1.70533910860138   -5.52655528812833    0.57627897366663
C         1.84261741898870   -4.30751145490844   -0.08182954370763
C         3.06304970775420   -3.99029140150363   -0.89407971147735
F         3.62456485030828   -2.82051535406168   -0.52223307579964
F         2.79186638623158   -3.86454062642570   -2.20885982104442
F         4.02741687474964   -4.91627118047500   -0.79566295609808
C         0.84405806154603   -3.35042433457213   -0.00578041916639
C        -0.31455059228188   -3.60142383282494    0.72036391584921
N        -1.31768658248046   -2.61627104309486    0.77977328453484
C        -2.53817260257878   -2.91291689125010    0.47295934668228
C        -3.54858486537820   -1.90321376466193    0.59852296480417
C        -4.88768873186129   -2.24437671932836    0.55727655415751
C        -5.81418387547486   -1.24969472050391    0.87748506713959
C        -5.37520726052430    0.03761852242683    0.98968324923168
C        -4.00380981928295    0.37288528585874    0.74126676036869
N        -3.69217059547435    1.64159680012220    0.47532338352738
C        -4.73501349313389    2.61450372953908    0.15640056654901
C        -4.24107820611064    3.59818031039204   -0.90161646210831
C        -3.07286288900922    4.43633688510061   -0.37751146846748
C        -2.25660541336870    3.60641647663820    0.61754955912189
C        -2.34093910949227    2.12375373028841    0.27360327519103
N        -3.08671089058534   -0.63059432358740    0.77787548731832
H        -2.15909524074090   -4.41835382994966    2.23591762916474
H         0.44689501531862   -6.69716989155271    1.85201637362485
H         2.48332103861281   -6.26994058325408    0.51103932895502
H         0.94110156575943   -2.40820257812338   -0.52362088008627
H        -2.80815353986628   -3.89270305275403    0.09049256101917
H        -5.19000752294783   -3.25819739413861    0.36152654406240
H        -6.85222201645962   -1.49539785498556    1.03305656387699
H        -6.05786420756444    0.81429546964385    1.28696917565415
H        -5.03053780600807    3.15893907347251    1.05899192038041
H        -5.60347948301214    2.09537485321159   -0.24947586562185
H        -3.93637240878004    3.03709106904029   -1.78580761121974
H        -5.07017528073146    4.24231738085514   -1.19355491927940
H        -2.44682309560717    4.75006249065619   -1.21287973824776
H        -3.43922330480869    5.33867659075352    0.11273550414490
H        -2.63597134154515    3.76091255224431    1.62852317861951
H        -1.21236008025931    3.91593825468205    0.60724487098655
H        -2.02949105024609    1.95997487779783   -0.76248616560679
H        -1.66375261009246    1.55117605575795    0.90551102964029
Cl       -0.24538592597963   -0.24091011691156   -0.71410984180149
