65
 energy: -101.230940645794 gnorm: 0.000661500601 xtb: 6.4.1 (afa7bdf)
Ir       -0.56436098040413   -1.20867289905644    1.14583929594101
C        -1.85872967555495    0.98651609797239    3.50141466329330
C        -0.72060885065514    0.19785792129944    2.95229585745163
C        -0.39928832970366   -1.14624444301783    3.36575120347724
C        -1.13331034873938   -1.91412332821979    4.41143487251418
C         0.90573914702067   -1.47038041835118    2.84893788973813
C         1.73051410373090   -2.63625951036386    3.26898373219307
C         1.32201904116240   -0.39742269161374    2.01406194292688
C         2.65301219247973   -0.22388586208147    1.36854171816600
C         0.31082294568315    0.64611881536423    2.08324633137020
C         0.51463390968950    2.01899773549225    1.53522159119590
H        -1.63511053879182    1.23699835404218    4.53912934152150
H        -2.78176657709042    0.41221317523386    3.49049137900921
H        -2.01427065202205    1.90889041361063    2.95177713085338
H        -2.20217549467588   -1.72640410121359    4.35849606884880
H        -0.95581375939962   -2.98180888767480    4.31526042112183
H        -0.78403288942239   -1.60212770338775    5.39648935185721
H         1.11576079193041   -3.50420528538420    3.48953267493346
H         2.45778681909667   -2.90542917385989    2.50883062270187
H         2.27104940063928   -2.36607175035863    4.17659075397249
H         2.54064465421345    0.18594050586039    0.36721820233678
H         3.18740920350279   -1.16672595256739    1.30719669318612
H         3.24812941734573    0.47632286103419    1.95517528849187
H        -0.34838512946573    2.65463221054494    1.70966035774594
H         0.71843061273519    1.98061271706931    0.46630893151729
H         1.37939508593840    2.47029439539363    2.02142100741679
C         4.95016258819605   -6.40650150883690    0.05646088828141
C         3.65144005200628   -6.72045824495823    0.71559880297572
C         3.44860355132611   -7.88837353006501    1.37005542681734
C         2.19896032238859   -8.22808260391659    2.01343724787029
O         1.97224959133265   -9.25624887696156    2.61348031520085
O         1.18995102451587   -7.30703987750879    1.93276605240437
C         1.35413457529897   -6.12893562357447    1.28978436675579
C         0.25737978464410   -5.27123104711336    1.26927339981150
C         0.36185972617731   -4.03632179395218    0.64333291915008
N        -0.72254525648756   -3.15400276925079    0.61236770103251
C        -1.90184538954277   -3.57973458254062    0.28202701975104
C        -2.94311222663435   -2.60422382564481    0.20690749642459
C        -4.26221237148302   -2.91976997902943   -0.17651342166140
C        -5.18199183184525   -1.91624200538861   -0.28309918551580
C        -4.77278185453451   -0.57945486640199   -0.08590894814070
C        -5.64984202739733    0.50922372242640   -0.25790758425785
C        -5.20121087292915    1.79600810750406   -0.12629881508375
C        -3.85045861452217    2.04294517770065    0.16704670238744
C        -2.97858746820477    1.00731954615715    0.37060555283614
C        -3.41480835704341   -0.32723330542087    0.27287735281960
N        -2.54902088061447   -1.35015317125261    0.48384871817628
C         1.56656444101310   -3.65746587485134    0.03683158476898
C         2.63776046220447   -4.51814925656391    0.03994426803130
C         2.56233884310641   -5.77049297305135    0.66698501723949
H         5.39178619679511   -5.51385622826753    0.49549275641913
H         4.79882032977148   -6.22315355433415   -1.00581219589404
H         5.64411145244364   -7.23336815124214    0.17339093950915
H         4.21905554024513   -8.63907598649325    1.44539814000002
H        -0.64846188588849   -5.57757362046478    1.76783598269226
H        -2.07882003250573   -4.61072249891659   -0.00133556099764
H        -4.51853070386257   -3.94833096538606   -0.36986141372784
H        -6.20898826746756   -2.12287293289577   -0.54179753190869
H        -6.67853551684155    0.30556513139300   -0.51264170215648
H        -5.87590158363551    2.62595959577889   -0.26671780993941
H        -3.50113924345430    3.06211698093347    0.22382531640311
H        -1.93215955096224    1.18820763968483    0.55357753461010
H         1.62310974854632   -2.69950938293928   -0.45667258246209
H         3.55324177455659   -4.22498626744193   -0.44636248957224
Cl       -0.02354116792691   -0.61571679266666   -1.10020258483072
