61
 energy: -98.737368608290 gnorm: 0.000851726431 xtb: 6.4.1 (afa7bdf)
Ir        0.78157431044262   -0.92740579309210    2.05904917874853
C        -1.45418587335883    1.84266911007612    4.58381259412510
C        -0.41469657294382    0.80351072865431    4.45828438841059
C        -0.56801157349210   -0.50089531635068    3.78753136748225
C        -1.95310616616217   -1.05477104059689    3.54173529655845
C         0.56650049952180   -1.27763810617739    4.18708654633047
C         0.53901119011049   -2.75893566276213    4.47914592071860
C         1.43674398551815   -0.39034710421978    4.98679755259062
C         2.71073934395960   -0.83167214810949    5.54079259194683
C         0.81498679550651    0.85602681776608    5.11374824812681
C         1.33254120461876    2.04740900876617    5.84504430593198
H        -1.71429313450979    1.94266699063604    5.64024920317589
H        -2.35837032654166    1.60927390222291    4.03027617105711
H        -1.06831952880958    2.81879682989224    4.28480099270325
H        -2.53606243848014   -0.40266589111354    2.89620777510892
H        -1.91233155262975   -2.03846424708886    3.08251311651662
H        -2.47590986373132   -1.14845295451127    4.49394184210302
H        -0.14443603404207   -3.28714634796648    3.81937309909552
H         1.53431492574027   -3.18641187559384    4.38588946654998
H         0.19418916409441   -2.90562195556559    5.50320921578483
H         3.22016302522317   -0.05286719733148    6.09801920803756
H         3.33650338020957   -1.16744399246828    4.70035926543344
H         2.57687010664684   -1.71164165771960    6.16994168822594
H         0.82926918532964    2.15118221409851    6.80596745942744
H         1.15246925098556    2.95507861017987    5.27343048704980
H         2.39910286299612    1.96162639164828    6.02650132356863
C        -2.23538890417624    3.59069728982018   -4.34559856852553
O        -1.72423756382362    2.74667121801844   -3.31356955142110
C        -1.99047840945116    3.07970821909757   -2.05624815792058
O        -2.63093317804800    4.04741550276210   -1.71755989269478
C        -1.39032197168708    2.11749820599031   -1.08385622166752
C        -1.49651355697733    2.37643217973042    0.28698734626837
C        -0.96591859539580    1.48125950783823    1.19121768385281
N        -0.33448677454610    0.35662754420582    0.83614266327146
C        -0.18920467546892    0.12680144715705   -0.50024615272398
C         0.55853641577421   -1.04500302345892   -0.80819168378647
N         1.12828166154435   -1.64671918438819    0.19143805080095
C         1.86856632659530   -2.81093873835603   -0.06694626061332
C         2.79782209730373   -2.84025090198944   -1.10203307485547
C         3.52973225793605   -3.99436714222516   -1.32430306134011
C         3.31417619786241   -5.10099664247604   -0.53322844741570
F         4.03027680485464   -6.22375342433083   -0.76434802296665
C         2.37912572267201   -5.10325945757666    0.51591481221543
O         2.25174162987559   -6.24266220735346    1.22081890064709
C         1.34363690496909   -6.26853196781984    2.30772421039790
C         1.66531964266613   -3.93235163947737    0.73682108889538
C        -0.71877760442572    0.97294831847176   -1.47628312510314
H        -1.57143677738889    3.47034153765116   -5.19819982103532
H        -3.24823388687617    3.27765769807678   -4.60518949692946
H        -2.25390075980172    4.62840096210295   -4.00869833039775
H        -2.00617760727694    3.26579863493922    0.62119004317506
H        -1.05949015968306    1.67335534171484    2.24433533402530
H         0.62289812682894   -1.42487838953991   -1.82071029063860
H         2.98378559813801   -1.95960444642519   -1.69533118295019
H         4.27129452428409   -4.04354617546042   -2.10496196919322
H         0.31860215263943   -6.10393698541690    1.96628435761309
H         1.61627212341811   -5.52622251385381    3.06127157030658
H         1.43006006661749   -7.26723946806591    2.73003842033933
H         0.93679038363934   -3.87206940582538    1.52926126046652
H        -0.58853405299842    0.73452113917427   -2.51904118654732
Cl        2.93826467413474   -1.61282734583732    2.43687345161625
