60
 energy: -83.347993694031 gnorm: 0.000373879035 xtb: 6.4.1 (afa7bdf)
Ir       -0.59442297617402   -1.09853613616652    1.56232668385148
C        -2.48054038028048    0.68975062729114    3.85991495191684
C        -1.21200157463174    0.00458570800863    3.48403617836754
C        -0.94457456913527   -1.38911890620765    3.74022035694330
C        -1.86834307342585   -2.31427418155239    4.45926741431266
C         0.45943260665517   -1.62101726768387    3.50408442890853
C         1.22887415387960   -2.81333905383963    3.96001012458069
C         1.01310235138636   -0.42436207092956    2.97391015523383
C         2.45123395441159   -0.14047302961890    2.70604024324185
C        -0.02743972325836    0.58907042130323    2.96465036878141
C         0.24877924092001    2.03408311674199    2.71122866359830
H        -2.54652592515133    0.72354680292730    4.94786810340486
H        -3.34962906780434    0.14992921809499    3.49089297320111
H        -2.51736323471504    1.70612445069677    3.48166909085885
H        -2.90486388285346   -2.09502403317071    4.21923090776516
H        -1.66296743897093   -3.35210448005988    4.21143820073588
H        -1.73539942167702   -2.19012476464844    5.53479140980563
H         0.59852568140046   -3.69533047245924    4.02976341842104
H         2.07713071007981   -3.01644315632743    3.31199629389719
H         1.61800880497998   -2.60501693271450    4.95788096425943
H         2.56402441628373    0.42111915641781    1.78100478046024
H         3.03499843480105   -1.05360872294951    2.63518480119494
H         2.85513773899421    0.46479809812274    3.51821522016079
H        -0.65269843268176    2.63594357471865    2.77965460681437
H         0.69706421806440    2.17490019690169    1.72889774117971
H         0.96041684593480    2.39598458227896    3.45363604135700
C         4.50505702262194   -2.50742569115085   -0.46881041969833
C         4.25249104226849   -3.72199779440306   -0.01761946025536
C         2.91683487440444   -4.27038279913774    0.38908044273135
C         1.76043428267940   -3.28770667173603    0.23458783303574
C         0.45073486895164   -3.89335007336887    0.75006396692058
N        -0.62284524761669   -2.93481318592374    0.67901021857194
C        -1.66713385801129   -3.21117688564634   -0.02174018437994
C        -2.67366378921435   -2.19819444742818   -0.14912572461907
C        -3.87085792286106   -2.39433299170695   -0.86435983554471
C        -4.75880601742962   -1.36182879696303   -0.96887287798759
C        -4.41369557617525   -0.09976824992858   -0.43971066048733
C        -5.24330967568106    1.02953261297386   -0.58565165913240
C        -4.84116620273457    2.25622697171891   -0.13073615569402
C        -3.58077446645070    2.40353128593622    0.46956206601566
C        -2.76539188203019    1.32015117218880    0.65758717784537
C        -3.16601939057955    0.03852265351273    0.23804149419276
N        -2.36284213243522   -1.03644951461707    0.44177435103391
H         5.50502970474334   -2.20745670427683   -0.73360640765256
H         3.74111313726759   -1.76103549599595   -0.60031010458770
H         5.06468957640924   -4.43121457380183    0.08908716218232
H         2.72287066113969   -5.16557135751396   -0.20940645808745
H         2.99042276268703   -4.60060089348545    1.43029588287330
H         1.97296237132592   -2.37208988124891    0.78617344433268
H         1.64219639701404   -3.01953290337210   -0.81542167557176
H         0.19908105112975   -4.78368783900609    0.16493875018689
H         0.58001123299472   -4.18785874580255    1.79382944693742
H        -1.77934655356658   -4.15823962496620   -0.53973146492438
H        -4.06766449447595   -3.35910922549781   -1.30184803740341
H        -5.70480193840083   -1.48409257973589   -1.47333233650751
H        -6.19312097694671    0.90907580397070   -1.08368342980254
H        -5.47742533630175    3.11870010522784   -0.25310478485833
H        -3.25402959578056    3.38504112124629    0.77642645710831
H        -1.77948231097583    1.43195478880841    1.07550056848836
Cl        0.42824892500084   -0.14578033404090   -0.37695770851203
