74
 energy: -120.489507817957 gnorm: 0.000270712344 xtb: 6.4.1 (afa7bdf)
Ir       -0.39321276082482   -0.90098652425658    1.56937430432153
C        -1.98534049059590    0.87769918608611    4.02689734390123
C        -0.72053265004584    0.30497661551012    3.48882975466102
C        -0.23142049603644   -1.01232592807764    3.78935820042232
C        -0.86733146295665   -1.96959471476079    4.73983029729181
C         1.10681307597735   -1.11690057436002    3.26981141644141
C         2.08969951904393   -2.18045650358105    3.61511227721088
C         1.39364416990775    0.06974114235684    2.54344535891552
C         2.73167740440044    0.43645690863183    1.99915954282656
C         0.25233395255266    0.96281823840860    2.67983491494028
C         0.26872785179640    2.38621053597416    2.31140696470422
C         0.00929098103765    3.35107717640254    3.28377287289215
C         0.07427454838062    4.68730654385907    2.93866002432530
F        -0.17716823750243    5.61313706635038    3.88785365131116
C         0.38621005092296    5.11465206909344    1.66053755343030
C         0.63648261175881    4.13327795955586    0.71702034275447
F         0.93931063483604    4.51299903751138   -0.54140018682821
C         0.58506601726988    2.78486612677342    1.01278821506411
H        -2.25148436961841    1.79920144226359    3.51812222132205
H        -1.85329950665594    1.08724345279449    5.08905675937819
H        -2.80744149853803    0.17176237481666    3.93385769432233
H        -0.53752172520954   -2.98628083990767    4.54546234438041
H        -0.57893796072248   -1.70904224073258    5.75877464278973
H        -1.95107909778589   -1.92682563620127    4.67460788657932
H         2.53053316643125   -1.93887954366319    4.58311069027098
H         1.61794391101756   -3.15597546426568    3.69519344598144
H         2.88605205704098   -2.23387877716081    2.87951497295446
H         3.05444169831628   -0.26926761114182    1.23660877849095
H         2.71442037110420    1.43078906946446    1.56286437242722
H         3.46432992549387    0.41785485337297    2.80598402427574
H        -0.21364707908790    3.07726553229192    4.30146425424048
H         0.43371819236693    6.16146235892690    1.41158466157806
H         0.75854952296075    2.05702972347356    0.23456528687046
C         5.00807408080930   -9.44505781221790    2.54332361022085
O         5.01814784244732   -8.16666925785105    1.93777360666714
C         3.88193254443734   -7.43693218833938    1.90172748616368
C         2.64520189167813   -7.86097219191377    2.43756230060572
C         1.54724269918259   -7.05169897429912    2.36433129277484
C         1.61290807326650   -5.78143132909445    1.75246150740570
C         0.49388640328356   -4.93900264692702    1.66599963672406
C         0.59716935233358   -3.69110545182889    1.08303286102260
N        -0.49943096311650   -2.83333569384652    1.01144238456703
C        -1.66873804049746   -3.28203764977469    0.67146068337093
C        -2.73151909295500   -2.33001329185448    0.59427672927257
C        -4.04275862337419   -2.67201048308969    0.20688842991962
C        -4.98545850305077   -1.68884427073627    0.11343026735262
C        -4.61141356719370   -0.34602647351093    0.33778719123452
C        -5.52019543956708    0.72067494473662    0.19408975020072
C        -5.11089781963963    2.01574676851576    0.36489124726367
C        -3.76932171478682    2.29269247655177    0.67128965916479
C        -2.86554311194629    1.27851990602478    0.84145045548504
C        -3.26001276710740   -0.06501883094564    0.70070888772888
N        -2.36871751986159   -1.07061683575354    0.88417838432701
C         1.83666491160206   -3.25731121668515    0.55320839820806
C         2.92520294808781   -4.07383846451328    0.60038878078825
C         2.85721365256260   -5.35212530505446    1.20797408925007
C         3.96980196936378   -6.19480894943738    1.29653155938005
H         4.32624258092899  -10.12546494633166    2.02596947357025
H         4.74031069696424   -9.38259174832238    3.60152677551412
H         6.02667384241711   -9.81698503797081    2.45073565114147
H         2.56185346582297   -8.82707870793448    2.90858033957420
H         0.60678873370891   -7.38543562324071    2.77636148923506
H        -0.44052296186923   -5.26325384856138    2.10010994408034
H        -1.82139163896014   -4.31662216712967    0.38896809206118
H        -4.27519873127193   -3.70365115537449    0.00051351572941
H        -6.00688586419443   -1.91532931112365   -0.15078802117435
H        -6.54276886120491    0.49424305685401   -0.06598969150631
H        -5.80905173250566    2.82975330674145    0.24901532008843
H        -3.44851951982223    3.31809160557180    0.76924653430043
H        -1.82838788991504    1.49529994685776    1.03866193833859
H         1.87706840250076   -2.28932409272242    0.07797275725107
H         3.86408864202162   -3.75682543970175    0.17325051514437
H         4.91928070337525   -5.88304106494963    0.89126584559549
Cl        0.14970559902393   -0.31438860663371   -0.67511356250789
