82
 energy: -128.138418052047 gnorm: 0.000766339443 xtb: 6.4.1 (afa7bdf)
Ir        0.02266931724323   -0.63531819988463    1.66448049529560
C        -1.38767127053088    0.63042170028854    4.46029329093405
C        -0.15241815540621    0.27192495413021    3.70743780135921
C         0.56243775705310   -0.95570478190244    3.85729887799673
C         1.75591789758622   -0.87679225611287    3.05600678855832
C         2.87755607228996   -1.86209904691419    3.05645624936826
C         1.82299138083610    0.44161452183218    2.49188160621887
C         0.61823787786792    1.13749315701035    2.84514900434885
C         0.35161873928542    2.55619605758298    2.57034250471717
C         0.07276069066747    3.43925132880961    3.61271688047904
C        -0.13112443691066    4.78082948238694    3.35695998124924
C        -0.06417073439750    5.28223614407401    2.05769186651771
C        -0.25054918258032    6.71679845718105    1.79479334822082
C         0.56761272505973    7.37743711850099    0.88014990870630
C         0.40684299242052    8.72984367668488    0.64164349998826
C        -0.57731730412456    9.44263438592981    1.30735774477213
C        -1.39896385531463    8.79469607697138    2.21553378810216
C        -1.23513261997892    7.44368084046315    2.46090053414026
C         0.20251075553923    4.39293675399322    1.01664646475931
C         0.40974876350474    3.05086119599874    1.26673908315299
C         3.00288656845633    1.02163032433543    1.79793906783521
C         0.23238887882714   -2.00094327150660    4.86702649188100
H        -1.12439239134689    0.85057229157746    5.49577525468870
H        -2.09231674720680   -0.19786969276188    4.47002654309966
H        -1.86881376200513    1.50611224296999    4.03446973749886
H         3.47033128036917   -1.73814362485948    3.96314230246989
H         3.52288543818987   -1.70536177603356    2.19702762012930
H         2.50480186442853   -2.88327575681942    3.02463554510786
H         0.05197548376183    3.07983470283274    4.62937566278480
H        -0.31462005153041    5.45702771191676    4.17813893328663
H         1.34970224816568    6.83304421372900    0.37134522899155
H         1.05318569591568    9.23170956877514   -0.06379432019581
H        -0.70157278064180   10.49906153382220    1.11972873103655
H        -2.16929905061530    9.34571748197184    2.73508678039727
H        -1.88900192470893    6.94440663643031    3.16080256161406
H         0.23966818726975    4.75670815853953    0.00037602686500
H         0.60441778487472    2.37186481020294    0.44927653249767
H         3.15638693399356    0.55392140700670    0.82609134089234
H         2.87044537189036    2.08958622945288    1.64578246520033
H         3.89519596811123    0.84975794483504    2.39848658048631
H        -0.79359313948707   -2.34903452840414    4.76855085054957
H         0.91493728021019   -2.84162208373971    4.79559100242978
H         0.33330098218797   -1.56305606809689    5.86096129543933
C         4.06182604682295   -9.52320924575378    3.09287017869188
O         3.75255393035135   -8.77824706733627    1.93102589649193
C         2.95814241228727   -7.68667570559273    2.03367703601580
C         2.40668534396597   -7.21480986837512    3.24514393603975
C         1.61182730961844   -6.10343881786974    3.25459220881976
C         1.32572984113919   -5.39601596237489    2.06807081535684
C         0.52341432611919   -4.24226827876942    2.06057739218519
C         0.24698593709379   -3.58506902981293    0.88252187324038
N        -0.56471175943587   -2.44465402650750    0.88079926396093
C        -1.57646404187468   -2.38674238923611    0.07149123713334
C        -2.30380408250539   -1.15807634617639    0.01012541741772
C        -3.41775746776054   -0.94007182869076   -0.80873036021992
C        -4.00454769312051    0.30190549173938   -0.81232145959722
Br       -5.51829474892995    0.68366886777900   -1.89218996940648
C        -3.48180459593151    1.33387570795131    0.00042071762335
O        -4.08890170783105    2.51387821714693   -0.05092150013492
C        -3.60899578172608    3.59303170180960    0.73580164071331
C        -2.37862839165226    1.02226478100591    0.79548379512369
N        -1.80893011789066   -0.17913531757280    0.80122328875044
C         0.77762794112823   -4.06895318238874   -0.33818663168055
C         1.57922720694822   -5.17012653608022   -0.34865128478782
C         1.87686378478486   -5.87139605267539    0.84478662689180
C         2.68693129648994   -7.01311381926755    0.85645247959681
H         4.61119899003825   -8.91821474467124    3.81935774036591
H         3.15976357223531   -9.93310552860377    3.55555127876615
H         4.69491928662916  -10.34033142326136    2.75272478927931
H         2.60817040714787   -7.73091446103752    4.17000534667372
H         1.19222461937497   -5.75468791820244    4.18639268049291
H         0.07538707291199   -3.90200792636863    2.97932394271881
H        -1.86190176800339   -3.23262995639136   -0.54292014522740
H        -3.79590568135339   -1.73312390445185   -1.43304296089148
H        -4.24137732109795    4.43819406946316    0.47435282581967
H        -3.71142417442291    3.37345922309131    1.80047833442688
H        -2.56783782668692    3.82571871398603    0.50117155456446
H        -1.93641230443962    1.77119900325461    1.43462114680787
H         0.56941164195441   -3.52325020803333   -1.24557459589833
H         1.99914943360596   -5.52762906889392   -1.27647550679516
H         3.11079038097599   -7.38536410519842   -0.06294218876165
Cl        0.85751215404675   -0.30019208100695   -0.53900979504126
