68
 energy: -105.167609972497 gnorm: 0.000280983790 xtb: 6.4.1 (afa7bdf)
Ir       -1.07583330743370   -0.92334700522306    1.04556300140168
C        -1.93417959380871    1.36988237289592    3.48583946605951
C        -0.90867200873669    0.52631920134130    2.80862021906683
C        -0.57892170126515   -0.81976106027681    3.20708204255695
C        -1.17333101278774   -1.53906968994535    4.37023522139430
C         0.62568894511492   -1.20615644507375    2.51573262514347
C         1.45479900269491   -2.39840021140533    2.84364972293884
C         0.95509435142527   -0.16882015788610    1.60371971960895
C         2.17835490161902   -0.06268172782029    0.76059083865011
C         0.00059468807729    0.91330917105409    1.78680676062679
C         0.17403290861418    2.26645748357493    1.17941792202608
H        -1.56861514425970    1.62920472087319    4.48004877256906
H        -2.87313454741917    0.83431085562637    3.60472228139424
H        -2.12397642958596    2.28740889502874    2.93869716558975
H        -2.22762008674303   -1.30150388582392    4.48137197112875
H        -1.06102438960106   -2.61467638113015    4.26416701708077
H        -0.65822187522722   -1.23451511598468    5.28220431414685
H         0.84081411184369   -3.25362779583006    3.11290183188273
H         2.09306435746110   -2.67734316138906    2.01076416496414
H         2.08854347264175   -2.15494070219616    3.69704219603046
H         1.92876737697536    0.32255901317011   -0.22581265214651
H         2.66460138875912   -1.02662465037975    0.64624330072574
H         2.87981354669950    0.62997885453793    1.22656529744042
H        -0.62772175786128    2.94055352210031    1.46580150181666
H         0.21224913003975    2.19865747056293    0.09332565721947
H         1.11909677813679    2.69099878337698    1.51815557816547
C        -7.29558695073399    5.60919395862534    0.06122391474097
C        -6.07232163794984    4.71286931286959    0.17251531110766
O        -6.52957347496423    3.36449427056706    0.20866886438796
C        -5.65737958012384    2.35463656848941    0.31274507666010
C        -4.25289705826295    2.50799717307712    0.38751921106861
C        -3.43716580279674    1.41905981172827    0.51535422403603
C        -3.95773454627578    0.11219725999122    0.55893500235103
N        -3.13544655476890   -0.95404217544258    0.68694974882800
C        -3.64343615073103   -2.18951500356849    0.54219359513839
C        -2.66683473729793   -3.22922895932812    0.50593293823427
N        -1.42599375020991   -2.87721982497714    0.63719659764973
C        -0.41048707881922   -3.83773386063270    0.55660503514037
C        -0.53831487975666   -5.06081247249057    1.22117133460740
C         0.48756930794855   -5.97990278454269    1.11146239047989
Cl        0.35162125917012   -7.50087580849232    1.93987500628472
C         1.62401696603517   -5.72490843014251    0.35919078756716
C         1.74707777300640   -4.50089748276691   -0.29979921492171
O         2.80573340990358   -4.13634537467125   -1.04692132696814
C         3.86276758266386   -5.05794730295620   -1.24626822523904
C         0.72545134327550   -3.55430827700556   -0.18622742354599
C        -5.02704452387829   -2.42664589451012    0.38979148160031
C        -5.88817839389012   -1.37073013473255    0.36842689118139
C        -5.37150100544615   -0.05342248871395    0.42226781042887
C        -6.18925335132566    1.07356716308370    0.32397887693948
H        -7.84626848495098    5.37975054064084   -0.84682470939186
H        -7.95145272777006    5.45458961816032    0.91348805170030
H        -6.98497456746301    6.64945357070910    0.03501338755656
H        -5.41566747328593    4.85921019452252   -0.69395070211253
H        -5.51766417645622    4.94141872602447    1.09081501083091
H        -3.81425755982950    3.49078071632495    0.32879208129381
H        -2.36628682882012    1.53842848790164    0.52529971514368
H        -2.95175466811932   -4.25475826520735    0.30266663934873
H        -1.40259142672100   -5.27515855344051    1.82719413585655
H         2.39292330532803   -6.47591281802848    0.29837245688333
H         4.34876597902603   -5.31478529317154   -0.30148043837223
H         3.50856718542608   -5.96607137027022   -1.74047946433522
H         4.57294620106224   -4.54721864049269   -1.89311052970802
H         0.81227791951569   -2.61703594890801   -0.71249979612990
H        -5.37277338060826   -3.44322012095839    0.30093479548567
H        -6.95341712569817   -1.51662581615425    0.28170805235684
H        -7.25680987833597    0.95458270885345    0.23187243518994
Cl       -0.83116756242886   -0.44576433376193   -1.27933196682724
