77
 energy: -108.989047241687 gnorm: 0.000642777208 xtb: 6.4.1 (afa7bdf)
Ir        0.01917445469644    0.94943299973331    2.35968467871806
C        -2.23024776180022    2.95734354941061    4.42411978897821
C        -0.90351609278560    2.48546721708340    3.94268559427432
C        -0.22498785006199    1.36460838496529    4.56761337921801
C        -0.81873462790829    0.52715195454926    5.64883006072170
C         1.16152996286311    1.43893229278400    4.23582339323412
C         2.26132738984823    0.75599225024066    4.97246909326644
C         1.30393920683315    2.46090964883392    3.23585683269907
C         2.59792051879720    2.99504847256843    2.71539519817346
C         0.01698496654739    3.14158911977626    3.09891751606071
C        -0.12743064784499    4.44533812694797    2.36768930596963
C        -1.30060011492560    4.51619676988235    1.38586331220417
C        -1.27468818066835    5.85075331689623    0.64680336948461
C        -1.35030803658392    7.01291528765220    1.63378473065092
C        -0.20278527164718    6.93687852524409    2.63737051788297
C        -0.22351770825797    5.60229248426340    3.37673696274405
H        -2.91095670862908    2.13014666688210    4.60274397190181
H        -2.69972951503254    3.65203945447517    3.73842043943677
H        -2.07036016746965    3.46413019160786    5.37766910135886
H        -0.25905698516660   -0.39285688861108    5.78913801077727
H        -0.79943692268809    1.08563383396667    6.58543541910264
H        -1.85356443225932    0.27921959293624    5.42861312325430
H         2.53135113735434    1.38517883336778    5.82188499792761
H         1.94462102969858   -0.20659199744906    5.36155945708515
H         3.14841869005008    0.62394629931676    4.36229736471342
H         3.42308027146880    2.32846641208288    2.94774306551644
H         2.55503646377390    3.13732199552312    1.63741052433063
H         2.80187074100993    3.96162115574738    3.17610135641539
H         0.78303799946780    4.59306125121162    1.77886862916593
H        -2.25263516595791    4.42053430028901    1.90684003181945
H        -1.22113924341523    3.69635315406275    0.67172792892110
H        -2.11388598584241    5.89964265982095   -0.05005691650211
H        -0.35465841678742    5.92948026138939    0.06235243677283
H        -2.30340694584537    6.97519724276871    2.16652038014770
H        -1.30861997899364    7.96157142724375    1.09451966862368
H        -0.28274962129834    7.75488906214160    3.35624355231382
H         0.74677042495745    7.04994281785054    2.10869700496658
H        -1.15062108279571    5.51981187385021    3.94348967021011
H         0.61003308051387    5.55368640192049    4.08014274013324
C        -5.92789252013629   -1.43555908440820   -0.08214211686135
O        -4.96975522421574   -0.58086137166310    0.52454130341440
C        -3.72026860387065   -1.00553031502512    0.68928062194739
C        -3.20407444361259   -2.24563499005053    0.30689465975235
C        -1.86369332392730   -2.49107685866927    0.51868980730367
C        -1.06644186389266   -1.53060556560516    1.13922621138919
C         0.35232273570693   -1.65836470033505    1.25378182873467
N         1.02860089493941   -0.71600303826534    1.81274479719092
C         2.47444457054446   -0.81226444917470    1.79091987352760
C         3.03755753446635   -1.84346736723138    2.78481921071140
C         2.95554217863150   -3.29895894984472    2.30733616138301
C         3.81368019599443   -4.17585608285109    3.18222269807746
C         3.26799057389599   -4.85911460475208    4.26090626392973
C         4.06528026627726   -5.64695147949467    5.07357405771876
C         5.42138845363210   -5.75902310379879    4.81758679142793
C         5.97555271406745   -5.07928128260254    3.74504932128253
C         5.17641910455070   -4.29222948757527    2.93501430428434
N        -1.57239215983618   -0.34754571085797    1.57971118755660
C        -2.84147170537223   -0.09704295635159    1.31728544358581
Br       -3.57478205038701    1.57161334239882    1.74935909448365
H        -6.85437214401378   -0.86580662716865   -0.08980032362698
H        -5.63977082108620   -1.68141663342771   -1.10648292368417
H        -6.06200153091973   -2.34836754264814    0.50189181382512
H        -3.82889243105745   -2.98440045476177   -0.16729946461310
H        -1.42108521551448   -3.41877080530399    0.19471980547193
H         0.83950004488268   -2.50876453863145    0.79122270964524
H         2.87313180015938    0.17355454084775    2.02604553118310
H         2.79830537635990   -1.07188021820483    0.77838660671225
H         2.52221226147767   -1.75442504662278    3.73947779992719
H         4.08833923037348   -1.59801000346386    2.94393424819470
H         3.31235612183579   -3.36714150305681    1.27738438989243
H         1.92648835208997   -3.65635123373367    2.35308964852745
H         2.20990912537936   -4.78207550704073    4.46564776911568
H         3.62762031160472   -6.17826527683456    5.90647322221047
H         6.04431150888891   -6.37636880901099    5.44824287368570
H         7.03240440697866   -5.16687199606628    3.53812738493182
H         5.61606868423184   -3.76969834465884    2.09701969376816
Cl        0.24984371749265    1.50934265270428    0.04938500135646
