66
 energy: -116.151654884269 gnorm: 0.000586547861 xtb: 6.4.1 (afa7bdf)
Ir       -0.70517476574472   -1.26642461309853    1.34921693633298
C        -1.80090381269407    0.49511833544858    4.10527358846014
C        -0.68040336442825   -0.08633232037571    3.32016821819058
C        -0.16631587499514   -1.41117335763716    3.51738081378517
C        -0.63545025979540   -2.36884636102442    4.55850358196317
C         1.03462374568189   -1.54136036808825    2.73875637366349
C         2.05976157319094   -2.60985766968331    2.88192872889391
C         1.21161906482735   -0.33423771637581    1.99116967091851
C         2.42714710705835   -0.00062150959851    1.20100198061387
C         0.13935249184091    0.57183553056207    2.34773338548670
C         0.12641035858535    2.00111930124787    2.00588048625753
C         0.08681970544846    2.95092160260857    3.02448033570514
C         0.12396225665327    4.29173074381888    2.69324324236500
F         0.08768276080029    5.20384993296518    3.68736561059160
C         0.20087423335431    4.73693693411470    1.38614528081777
C         0.23904066098399    3.76873454672964    0.39802721546250
F         0.30942928619428    4.16530302640736   -0.89022610524767
C         0.20751245792945    2.41683639381404    0.67806954971354
H        -2.08591084902988    1.47207996077301    3.72918227820786
H        -1.48304463670272    0.59348338719028    5.14400722666416
H        -2.67062866942178   -0.15846169926489    4.09429933229712
H        -0.36021262582899   -3.38783562339717    4.30157978933285
H        -0.16553585493509   -2.12030847472082    5.51067923655560
H        -1.71220458518491   -2.31029890906667    4.68944934427675
H         2.72708146951441   -2.33125003385691    3.69889752345760
H         1.61311647144834   -3.57021176642128    3.12174373429157
H         2.65179526792323   -2.70776846665391    1.97735682224133
H         2.55325503196104   -0.68847113283258    0.36724604399497
H         2.37053646706127    1.00967102826051    0.80763026741704
H         3.30460484043749   -0.08523502970866    1.84154312266352
H         0.05249576720347    2.66271174329553    4.06185780383883
H         0.22699326259757    5.78710313434638    1.14842101525639
H         0.21033205795047    1.70048450214317   -0.12868169374367
C         4.29372280398827   -5.53604639258744   -0.76851855397232
O         3.24050194832978   -4.59493359955113   -0.65111652911780
C         2.15976396443106   -4.90523930723296    0.08505069715711
C         1.99832465292918   -6.09144522034470    0.80269805615804
C         0.83734562536901   -6.29377363687079    1.53367469126627
Cl        0.65348184324743   -7.77001969103376    2.42941192243889
C        -0.17852801144318   -5.35583476455948    1.56618857198270
C        -0.00824558391636   -4.17014475812127    0.84806455205125
N        -1.02433552379826   -3.19882248345606    0.83571116776680
C        -2.22832675805782   -3.55341399402340    0.52466976403766
C        -3.22725860771009   -2.53624758455797    0.44444903421016
C        -4.51578844388901   -2.76203140627212   -0.03817451888385
C        -5.38539621818881   -1.70492503267874   -0.20559071913204
C        -4.94147698534479   -0.41510289085336    0.10121031497651
O        -5.63142904786328    0.70985301355108   -0.02072624432680
C        -6.96522990104370    0.66990896269156   -0.51084574217720
C        -3.62617736529131   -0.27876458563717    0.60167629020654
Br       -3.07342468691031    1.47671359453161    0.99066985783319
N        -2.80071749705108   -1.29060094829278    0.79132917593390
C         1.14914068454877   -3.93934805692533    0.12251753062004
H         4.74678164410758   -5.74678863538474    0.20346609807922
H         5.02921980475719   -5.06654841879635   -1.41851685869339
H         3.94458678934510   -6.46518568447791   -1.22576382106399
H         2.75711211448992   -6.85508875353278    0.80199446542464
H        -1.06777035344181   -5.52876090344287    2.14898989269314
H        -2.46579607416901   -4.57773963950345    0.26034279186119
H        -4.81822610188588   -3.76485117400613   -0.29177912903044
H        -6.38105158067066   -1.87164256179585   -0.58270908556634
H        -6.99615042531496    0.26740059598425   -1.52551348161087
H        -7.29802043488231    1.70545770941585   -0.51774902110436
H        -7.60551430548387    0.08188609973767    0.14975320189203
H         1.26158628198542   -3.03155064835832   -0.44804657534964
Cl       -0.42378029101839   -0.77940725560476   -0.96119653725708
