61
 energy: -94.563036320903 gnorm: 0.000176828002 xtb: 6.4.1 (afa7bdf)
Ir       -0.31017879850003   -1.44411081011090    0.97944745113952
C        -1.84954572374977    0.93064563728146    2.92315043327661
C        -0.63784247023745    0.14085503940153    2.56226648157382
C        -0.25619412674503   -1.10030863038862    3.19096156992004
C        -1.00096837559047   -1.74562481193685    4.31113126139002
C         1.10084192772220   -1.39450951200272    2.79800178828857
C         2.00855316211376   -2.38775143860174    3.43755117859578
C         1.49557120565387   -0.42786207378276    1.83772190282346
C         2.85718907101196   -0.26402805346418    1.25759633690482
C         0.41172835035687    0.52984881291244    1.68433772068312
C         0.53628250140375    1.80815753581681    0.92664894016938
H        -1.68766327191595    1.37761421182271    3.90464956232867
H        -2.73523439392672    0.30289534530869    2.98697030534484
H        -2.02854754855113    1.73532076569031    2.21612003433284
H        -2.07352740906225   -1.62716026581595    4.18673089485197
H        -0.77279769100298   -2.80511013774363    4.38223327554566
H        -0.71450981799577   -1.27154373392470    5.25092684143117
H         1.46061038544892   -3.06488428030839    4.08403251731768
H         2.55369686665991   -2.96541792818936    2.69446850731579
H         2.73679407694687   -1.84888032619533    4.04462114193803
H         2.79607744083747   -0.00579616208667    0.20267326381371
H         3.43928451522856   -1.17494070187884    1.36109026594807
H         3.37490147346536    0.54493454382468    1.77418545105963
H        -0.42213616939594    2.30701545179621    0.81849228319571
H         0.94498030662932    1.62215105978524   -0.06428601238769
H         1.21785040566105    2.47576162435732    1.45395408021018
C         1.61524999874007   -3.08444414686963   -4.06221980317021
O         1.92986866717219   -3.61579448986539   -2.77815238103199
C         0.90939822753621   -4.00296786999206   -2.02685758327132
O        -0.24740684635617   -3.99236032037162   -2.39192639700959
C         1.36649504355545   -4.53833726537380   -0.70990497379230
C         2.50931816306507   -5.31556119602330   -0.66249633627511
C         2.94067711956078   -5.90281501735750    0.53236508602302
O         4.05551928130162   -6.65320563899624    0.44931634399072
C         4.55178751351643   -7.28393285325586    1.61746319656059
C         2.20109831417174   -5.68375645737539    1.69534686644380
C         1.08358381398523   -4.87069609099488    1.66099183211924
C         0.65133671948420   -4.28940950315795    0.47559210243088
N        -0.45858786650110   -3.42756531338162    0.46370831663078
C        -1.53428716456784   -3.78519886823635   -0.15792292079046
C        -2.53769866344557   -2.77711753660450   -0.33960275029451
C        -3.72976361321355   -2.97373911603027   -1.03706481514203
C        -4.57934424883144   -1.90143318707895   -1.22899056614826
C        -4.20540664313106   -0.65841669901654   -0.72783118603818
C        -3.00989741596854   -0.53665955471783   -0.04311378608326
N        -2.19439724326061   -1.56781570210876    0.16725136189988
H         1.03814354973414   -3.80801833102491   -4.64089911055861
H         2.56672491616514   -2.87161428843367   -4.54077106170851
H         1.02911526815112   -2.17049099687579   -3.94669463861586
H         3.07763775976171   -5.49816966603736   -1.55962533826689
H         5.44262589412494   -7.82098925623138    1.29874919113081
H         4.82311976795810   -6.54863256285559    2.37898687660135
H         3.82599506992030   -7.99292675073769    2.02349345064584
H         2.48792458554593   -6.13841963708836    2.62932312968873
H         0.50895021167468   -4.70822253967766    2.55808480015908
H        -1.66620569310150   -4.78387857125106   -0.55428032322366
H        -3.95513071460616   -3.95200095823284   -1.42854263431787
H        -5.50697602858104   -2.02254898908835   -1.76566492669724
H        -4.83179410779648    0.20765421592339   -0.86581736059678
H        -2.69497078971383    0.41892007570190    0.34689500427910
Cl        0.44665926140598   -1.09716807886440   -1.25339314264428
