65
 energy: -117.140898875547 gnorm: 0.000236607084 xtb: 6.4.1 (afa7bdf)
Ir       -0.49819445153461   -1.07887032931259    1.42735518712497
C        -1.97613042827875    0.68217362914240    3.93729269880460
C        -0.73342486590645    0.12389916133075    3.33686631310517
C        -0.17342213985269   -1.15984323470552    3.63712420476098
C        -0.70284983347177   -2.11122485426938    4.65375455894651
C         1.12299086775055   -1.24026601753897    3.00621593861377
C         2.14241489198712   -2.28862270163317    3.28827573285238
C         1.31748633320596   -0.06151824741513    2.24057913260828
C         2.57591383901009    0.35806946389764    1.56614444289238
C         0.14565081161595    0.78660529455085    2.42415775402720
C         0.08016397642692    2.20731452661215    2.03851645135314
C        -0.02450035633421    3.17319510143618    3.03816095033946
C        -0.03164320395632    4.50881333292634    2.68290102927375
F        -0.12803113401409    5.43626145296730    3.65798203531120
C         0.05697844067522    4.93177954434246    1.36885386445713
C         0.15249999311265    3.94754487361186    0.40037110392384
F         0.23465549969694    4.32224838177328   -0.89252906132680
C         0.16549292095465    2.59996711330162    0.70559162821742
H        -2.27806428525199    1.59613473794524    3.43374558374250
H        -1.78773187299307    0.91240357020535    4.98638099372509
H        -2.79109769648654   -0.03724210088692    3.90277762754500
H        -0.38556947010991   -3.12853784709467    4.44286074970228
H        -0.31592627493942   -1.83494134810697    5.63530222091898
H        -1.78747841832127   -2.07589498150724    4.69662947620906
H         2.68731760651594   -2.00815963438725    4.19035730332242
H         1.68178438851706   -3.25738010124734    3.46047704102413
H         2.85763866130534   -2.37914749309177    2.47633043408022
H         3.17871238940093   -0.50227514902292    1.29018980646942
H         2.36763000855716    0.94397273107501    0.67542709939909
H         3.15536044070185    0.97849397322231    2.25082653052283
H        -0.07479734060646    2.90104052864708    4.07960783955527
H         0.05305713953988    5.97779093545744    1.11150089814383
H         0.21873848501695    1.86981474958596   -0.08677503425482
C        -7.23331645060598   -0.74783987933858   -0.73966793515283
O        -6.24456782114075   -1.76975684437429   -0.72038524920802
C        -5.04499457366098   -1.51646938639563   -0.22234715342778
C        -4.61545385083393   -0.28691195045922    0.30445090394173
C        -3.33470734317036   -0.17162458864377    0.80130923475239
N        -2.46715410595663   -1.17975302023168    0.82394468475855
C        -2.85323719312943   -2.37183662874884    0.29549727398519
C        -1.81400123181537   -3.36334998262613    0.30278028111044
N        -0.66930744214268   -3.00081217785530    0.78308331837553
C         0.40654937910173   -3.90260163914302    0.79646969248530
C         1.62659881210021   -3.51303618491169    0.24615887804455
C         2.69208554173052   -4.39291586246024    0.23706047162275
C         2.54338682439274   -5.65753867837546    0.79492683875834
C         3.69725930742507   -6.62048282229091    0.82507411146853
F         4.23523670501983   -6.72304973475690    2.05991019622106
F         4.70242217020654   -6.27333679465147    0.00851193965119
F         3.33528592488608   -7.86890190675825    0.47811540998115
C         1.33285629389827   -6.04721892389235    1.35861289583819
C         0.26194694883216   -5.17383470367854    1.35227090714016
C        -4.11920156136750   -2.57200050815791   -0.22445573205273
H        -8.11101488272985   -1.20519480817473   -1.19043337471860
H        -6.91055910484630    0.09996915504764   -1.34697092867556
H        -7.47195278672397   -0.41659156029357    0.27292855166400
H        -5.26246109334546    0.57361895226394    0.32801218782576
H        -2.99135168054150    0.77155828635723    1.19911124747565
H        -1.97304067086038   -4.34775205463826   -0.12225449648292
H         1.71616258875867   -2.53386613496758   -0.19900854791300
H         3.63317592601737   -4.10350318491901   -0.20369480054839
H         1.23197283967034   -7.03119241609477    1.78962996647914
H        -0.67719289043726   -5.46711287135244    1.79449617661067
H        -4.40477930714378   -3.52455675672552   -0.63918609615250
Cl       -0.06618119356107   -0.55003045083292   -0.85854738927366
