90
 energy: -137.728317018655 gnorm: 0.000402518096 xtb: 6.4.1 (afa7bdf)
Ir       -0.95434695668648   -0.82182179323384    1.41058868121483
C        -2.40455146155266    1.39705348406980    3.61085580593622
C        -1.31431751635657    0.44665725306016    3.24989434855530
C        -1.37331412115506   -0.96309979137418    3.61064290025739
C        -2.50943764367189   -1.60199826278093    4.33759642801681
C        -0.06379092852396   -1.50924424549111    3.47028567077938
C         0.42440871253918   -2.80188742316245    4.01589253481742
C         0.74315352926268   -0.52271915859566    2.82715207403652
C         2.20392210759615   -0.65872040075848    2.56479906655174
C        -0.00941994563218    0.72590843991296    2.77147490778221
C         0.65668938174035    2.05728106869380    2.55726945082052
C        -0.00318439460190    2.95664904318121    1.51055162697402
C         0.79964983481877    4.24292046007614    1.34325914776531
C         0.91493646383090    4.98356222508837    2.67291281506096
C         1.55946331981709    4.08637740518430    3.72626055185140
C         0.75680008326588    2.80043994115803    3.90012118715035
H        -3.38124831443157    0.95558499538441    3.43062130880348
H        -2.33224212268943    2.32790925474660    3.06050797871077
H        -2.33126560164514    1.61393974335502    4.67760608080890
H        -2.49192967343188   -2.68221853469160    4.22402752373274
H        -2.43149234144451   -1.36951882259727    5.40018200935522
H        -3.46485948375665   -1.22789899291101    3.98126794204043
H        -0.39504609202582   -3.47888708113366    4.23615744143517
H         1.12433696168073   -3.28275090423179    3.33695967824460
H         0.95482699976802   -2.59768896351456    4.94735443220990
H         2.48168874888918   -1.70300048414243    2.45161497562046
H         2.48637126122854   -0.13059814973658    1.65713149536627
H         2.76751352243518   -0.23636892380855    3.39745051612638
H         1.67506364816556    1.86233460672059    2.20793624406697
H        -1.01959057132664    3.21548941610893    1.80651416830369
H        -0.05046175054603    2.42314615108210    0.56148913086887
H         0.31630831933025    4.87908887707304    0.59823998161263
H         1.79930772304455    4.00603635056390    0.97171040147647
H        -0.08020336934676    5.28411433536625    3.00954098842342
H         1.51018123172605    5.88977211142817    2.54337243366472
H         1.61598987032018    4.61417610501356    4.68051141687924
H         2.57948135140845    3.84459368929836    3.41867370409552
H        -0.24217889465703    3.04848689282084    4.25809335992260
H         1.23627437049208    2.16116902624333    4.64395872299545
C        -2.70097885437316    7.80628164994446   -0.18187795892056
O        -2.99836706567393    6.44080625105086    0.09279404903308
C        -2.38796216747638    5.52479140270027   -0.66444949303666
O        -1.60545805838341    5.80448222735746   -1.54619990296187
C        -2.77128392660050    4.13760710702439   -0.29873372549203
C        -2.16399797363683    3.07879160771613   -0.96958402679484
C        -2.48515586548811    1.77410848527457   -0.65107628310308
C        -3.43620326535552    1.50961920983353    0.33324140427499
C        -3.86883130493864    0.11936948692904    0.53252653575542
C        -5.23687018231018   -0.16721567145236    0.48127192819440
C        -5.67527661517998   -1.47954980333685    0.45231581321582
C        -4.72732239309496   -2.48965709552111    0.42312023920562
C        -3.38309601463708   -2.14605147256279    0.52048593936519
C        -2.31268871089552   -3.09841592878623    0.42493088815169
N        -1.11215906754202   -2.65529452683649    0.58763936826575
C        -0.01446568716510   -3.50445899614681    0.37416262800338
C         0.25836311204928   -4.52749799933896    1.27659775275914
C         1.37225779001176   -5.33530071097413    1.13890552798593
C         2.25278582748632   -5.13539912172315    0.07523941223143
O         3.37543397247698   -5.84261719187625   -0.14801730073192
C         3.72435843033050   -6.88266138046177    0.74973086715157
C         1.94442291450968   -4.14890385764604   -0.86813454751013
C         0.82117592395383   -3.35214374244484   -0.74534650723590
C         0.48147886432224   -2.48005530764070   -1.90943255486923
O         1.28874671590114   -2.09519993807075   -2.72095044293141
O        -0.84203326318071   -2.32883837196740   -2.03847959247572
C        -1.28003697945935   -1.55210211873702   -3.14825780180574
N        -2.96103787854634   -0.85953106321096    0.63658255929466
C        -4.06141559845692    2.57199698421186    0.98847108373509
C        -3.72132657638961    3.87561040686208    0.68763282599793
H        -3.04625128001662    8.07409327646583   -1.18219577463158
H        -1.62443838258091    7.97744430732942   -0.12510396966865
H        -3.22526759047327    8.38433578387585    0.57383414651209
H        -1.43923483297063    3.29861054032935   -1.73796461991829
H        -2.01551112601735    0.95679005413033   -1.17359974533659
H        -5.93725491791078    0.65053201559430    0.42699951150154
H        -6.72880688231232   -1.70735610728111    0.41588194092103
H        -5.00882028541562   -3.52600522627790    0.33486748764529
H        -2.50607506217064   -4.12498319264964    0.13611420828717
H        -0.42264434839709   -4.69552226941173    2.09560009458686
H         1.54130273462818   -6.11632754456363    1.86185348075248
H         2.95901259110671   -7.66264365968603    0.76755357266868
H         4.65368068341820   -7.29666104989595    0.36463537887579
H         3.88872228103394   -6.49576951043160    1.75852072517906
H         2.58279686226590   -4.02389925169960   -1.72825783188522
H        -0.85582455796920   -0.54839964538987   -3.08513443004561
H        -0.95639461295504   -2.01145824023467   -4.08412412835903
H        -2.36396950394623   -1.52282595690782   -3.08598341258484
H        -4.80363421521172    2.37901191822712    1.74780598300525
H        -4.19064658973028    4.69682577035385    1.20474554869937
Cl        0.31523567449463   -0.08768347537314   -0.46092698346977
