78
 energy: -125.406439592657 gnorm: 0.000283242780 xtb: 6.4.1 (afa7bdf)
Ir       -0.34562657612136   -0.87517003506560    1.78227912325302
C        -1.59880506743011    0.76055078278821    4.47921735073438
C        -0.41270566787457    0.22943769786696    3.75225811833697
C         0.17465067128695   -1.06390762872832    3.94396309190868
C         1.40777640200658   -1.10960253817929    3.19365658122832
C         2.45792151281362   -2.15657111589915    3.33964629490833
C         1.54066565765541    0.11782668251414    2.48762729987984
C         0.38953205125612    0.94586799280568    2.80656037564593
C         0.26822005301258    2.38025062659338    2.49223932502990
C         0.31408929912091    3.30869923184993    3.53095967206389
C         0.25534627150323    4.66119847189556    3.26115135957656
C         0.14240103062406    5.12692933766129    1.95171329568096
C         0.10253240749252    6.56940228860858    1.66679744521950
C         0.78006030677095    7.09188137435431    0.56638456556694
C         0.75346099913843    8.44867968203453    0.30113410683744
C         0.04513677495689    9.30670313163520    1.12657470149439
C        -0.63381994193395    8.79862461881330    2.22211345976032
C        -0.60313228967187    7.44288089266955    2.49247764447586
C         0.08250372615250    4.19200104777166    0.91917494780975
C         0.14621092484521    2.83806585558267    1.18329087596898
C         2.73239476948411    0.56881801128915    1.72149359436183
C        -0.26440449905080   -2.07468989032331    4.94607897049084
H        -1.32714573030204    0.93070061116959    5.52135021339044
H        -2.42592361294436    0.05422895107826    4.46695651884824
H        -1.92432083445370    1.70463210936240    4.05130106364717
H         3.06444052194507   -1.92066456676168    4.21485204051298
H         3.11294046047731   -2.18331728950280    2.47396472526941
H         2.02100116661433   -3.14091913953776    3.48506465136446
H         0.42542534841631    2.96845502411556    4.54914582929998
H         0.32282756032445    5.36834194886726    4.07397855612527
H         1.35000275056429    6.43440813927959   -0.07380541992309
H         1.28828322865436    8.83970555024053   -0.55245983225269
H         0.02290333002787   10.36610097524430    0.91711089097046
H        -1.19009392834814    9.46298455116267    2.86755584564470
H        -1.14826191891672    7.05694744047014    3.34136434461600
H        -0.03006356815970    4.52878382283374   -0.10030731961922
H         0.08662041300865    2.12671955326442    0.37346331247064
H         3.17864504260650   -0.24979694567710    1.16257002841858
H         2.46747479872506    1.36490531868150    1.03165658728375
H         3.47878842058803    0.95059321662960    2.41940778593400
H        -1.33473456186240   -2.01455243449584    5.12081065383447
H        -0.00938391590305   -3.08130291882666    4.62520581134271
H         0.24545138259913   -1.88329304846455    5.89105162553345
C        -8.05129150580558   -2.17138720949843   -1.14389683907586
O        -6.72120935531209   -2.04759189516701   -0.63861196598477
C        -6.32246216936824   -0.83908955576276   -0.26634147397506
O        -6.99530550079725    0.16149342428102   -0.32919399253330
C        -4.91726124349522   -0.85339950293251    0.25371335506113
C        -4.36839616069257    0.32475229714363    0.76698860138920
C        -3.07329856728444    0.31275933043910    1.24848937290465
N        -2.32315239946008   -0.78726353929341    1.24935983532917
C        -2.83672717642892   -1.93388350173664    0.73554616969610
C        -1.90762410181671   -3.02704099173383    0.72128862176531
N        -0.71441085636604   -2.77750007529043    1.15337498036453
C         0.26829738773169   -3.77777572615332    1.13688952054693
C         1.50383333877547   -3.48902993421799    0.55650129592474
C         2.45060677447037   -4.49128597753596    0.53778759814012
F         3.64913492105070   -4.23593668393018   -0.02676155909897
C         2.24086942484218   -5.74505808894319    1.08571606220364
C         1.00540513721244   -6.01874232934376    1.67278794162028
O         0.66696823329452   -7.18715671556574    2.24342234313656
C         1.60340115814334   -8.25135367705393    2.24610528502926
C         0.01856999988091   -5.02644749168348    1.68707696343088
C        -4.13518695791114   -1.99893003061180    0.23249484730776
H        -8.22414339532275   -1.44280740647612   -1.93701427564626
H        -8.13309708713255   -3.18565336823010   -1.52383727855803
H        -8.77212350418118   -2.00084176177352   -0.34286424686945
H        -4.95881601778979    1.22695547178564    0.78169992433856
H        -2.62098861143411    1.21230011228935    1.63982474384915
H        -2.18217039197225   -3.99447864503779    0.31724185969812
H         1.69171520635350   -2.53082577526620    0.10099441110964
H         3.03486551080334   -6.47101594075392    1.04040346880143
H         1.10016378547454   -9.07778482286890    2.74296115085880
H         1.87008162787069   -8.54582790371572    1.22809050805109
H         2.50433379856027   -7.98429374605112    2.80374697995723
H        -0.92507879915227   -5.24860336404139    2.15762656776030
H        -4.51699632613856   -2.92216447205665   -0.17188842053421
Cl        0.04843865380254   -0.37576089070681   -0.51945746895173
