64
 energy: -100.709633646068 gnorm: 0.000594689273 xtb: 6.4.1 (afa7bdf)
Ir       -0.69255224062782   -0.32373796070923    1.76867044140201
C        -2.13302096952123    1.93228122718901    4.12232844113769
C        -1.02228148555774    1.09284302568444    3.60033252330813
C        -0.86737774967484   -0.29866663684643    3.99594554487996
C        -1.81197667836543   -1.02760991730296    4.88792382893704
C         0.45471041225314   -0.71397515377383    3.66184087643382
C         1.13032924263015   -1.94119215390298    4.16294582366127
C         1.05618518571239    0.34609157934430    2.89643962917956
C         2.48782131826812    0.40967874336214    2.48743550871599
C         0.15070073554817    1.49257617076218    2.91732449028428
C         0.58891723227008    2.87156794611353    2.51064895059845
C        -0.34106095565779    3.59770681948270    1.53416655908781
C         0.27333679740868    4.93722923148564    1.13857498757790
C         0.50924626324530    5.80354221013398    2.37311527454775
C         1.41032835012017    5.07948124579174    3.36991126102888
C         0.80602650988632    3.73502015864928    3.76619463261630
H        -3.08774727944910    1.41724459980507    4.05744651127844
H        -2.21178276127982    2.88102300752163    3.60573760553699
H        -1.93528375489793    2.12335833069423    5.17857375273924
H        -1.66099005104543   -2.10161746518855    4.83066964021915
H        -1.63946348418577   -0.71467144299871    5.91821618511037
H        -2.84510122525803   -0.80061948907530    4.63946863914973
H         0.43890051453040   -2.77448780070254    4.24998723421586
H         1.96150743642349   -2.23471057270367    3.52923485661428
H         1.52224725222354   -1.72598904694068    5.15806818609267
H         2.93462221674909   -0.57923263657746    2.46669986653610
H         2.59450523092770    0.86407546400202    1.50563289699889
H         3.03558199942995    1.02133258428136    3.20481551124543
H         1.55518962459423    2.77270756100678    2.00751945595676
H        -1.31663992914332    3.77924671176588    1.98381845539289
H        -0.48447549435152    2.97957161960642    0.64787109635966
H        -0.39253507369527    5.45306723805114    0.44424753228168
H         1.22260732474796    4.76981781333552    0.62407289395865
H        -0.44935800799537    6.03055735650210    2.84534396114585
H         0.96685320125375    6.75061537409311    2.08034771767558
H         1.54670798269018    5.69464872465960    4.26158338125246
H         2.39383416117357    4.92326900631740    2.92060546070867
H        -0.14583509094893    3.90363833473572    4.26814986586878
H         1.47116061411318    3.21940160384047    4.46133966669648
F         4.26846313156218   -4.92236666584238    1.06783567849383
C         3.09860506489211   -4.25771479434241    1.07044608870025
C         1.97946548235236   -4.87117737957902    1.61129272997427
C         0.77781903082200   -4.19011411139707    1.60620351796690
C         0.70830582593725   -2.89784969204946    1.08045713706269
N        -0.50552029207545   -2.19583700515611    1.05096886807054
C        -1.56349359325895   -2.79541546960892    0.60190770450684
C        -2.76228106241503   -2.02936306272495    0.48083591872952
N        -2.68096857077671   -0.74470174229601    0.90441154506001
C        -3.70338416058640    0.06276182281603    0.64287064076851
Br       -3.52336633411746    1.87594694225239    1.07472577103857
C        -4.88867943387247   -0.35963333838725    0.05167848701443
C        -5.01788009014617   -1.68693758999196   -0.32643301279796
C        -3.92955747005342   -2.51455521960031   -0.12381465122925
F        -3.96653149508858   -3.79190470962706   -0.51186391610738
C         1.85035336013459   -2.29486582511224    0.55139336820556
C         3.05021438863566   -2.97895710207539    0.53680204909683
H         2.05851796719761   -5.86493119183451    2.02168234731004
H        -0.10059181874029   -4.64699743739869    2.03428244714462
H        -1.53641025556661   -3.81759738099087    0.24137550029594
H        -5.68974466578205    0.34470897676974   -0.10571526142053
H        -5.91999380586263   -2.06422447631381   -0.78154567325878
H         1.77251486321965   -1.30864368759274    0.12201560368854
H         3.94025780791493   -2.53867694332540    0.11702214375775
Cl       -0.23351824891497    0.48591067191177   -0.41730617851863
