74
 energy: -124.361894778874 gnorm: 0.000269779713 xtb: 6.4.1 (afa7bdf)
Ir       -0.85654730070853   -0.91955634372036    1.45316051483052
C        -2.06042204045087    0.95614519962858    4.06111270191230
C        -0.90700379588540    0.28839935305360    3.39597785164480
C        -0.49173543510337   -1.06286771630009    3.64984578158892
C        -1.09805870635288   -1.96904211710059    4.66696299249104
C         0.77929312484960   -1.26469567272326    3.00175961617733
C         1.70561864914945   -2.40093189651813    3.26036684272285
C         1.08478161430249   -0.09996777084788    2.24989642970428
C         2.37707570383522    0.17572002016729    1.56519278716955
C         0.02939606679213    0.87394531299181    2.49170482559639
C         0.12926356708405    2.30235436438463    2.14917723728674
C         0.11970222989588    3.24585387733256    3.17564325628010
C         0.26092878448791    4.58363253520136    2.86032940604588
F         0.25440759809090    5.48834225571648    3.86110583557325
C         0.40641600229826    5.03219994413360    1.55974961325092
C         0.40833742771240    4.07142857434246    0.56312981598735
F         0.54008912078453    4.47407028619083   -0.71736537238503
C         0.27443623032339    2.72188228261272    0.82795212128957
H        -2.27620824123856    1.91930854530374    3.60910478693764
H        -1.81883854253022    1.10711424082642    5.11374698151366
H        -2.95301385488979    0.33643467192252    4.01675239328910
H        -0.85665377360258   -3.00743585619798    4.45878720570728
H        -0.69808107182403   -1.71971290837651    5.65051818408113
H        -2.17749680498249   -1.85240637281268    4.70282995994822
H         2.22049894544110   -2.21534643633876    4.20395707947388
H         1.17509426843952   -3.34529531319443    3.34778383178670
H         2.45298769542511   -2.48225702242773    2.47709440438420
H         2.73545701417637   -0.69392586372666    1.01787531230829
H         2.28535672848295    1.00713040196522    0.87321043354620
H         3.12820461771239    0.43179627372230    2.31343090411922
H         0.03058829638916    2.94950992927020    4.20760134415392
H         0.51616779834909    6.07956595881392    1.33340721210292
H         0.25820957454188    2.01297340405398    0.01383792409284
C        -7.02694711205576    5.67746327707824    0.45441214390065
C        -5.81264207609822    4.77821573775624    0.62410747785396
O        -6.24677484027457    3.43276284470848    0.44753609947110
C        -5.38222317288325    2.41947417990639    0.55405298993697
C        -4.00199806567374    2.56277959894853    0.83332552658839
C        -3.19353364277798    1.46749605273364    0.94808107180607
C        -3.69220119229690    0.16237023781449    0.77637052257918
N        -2.88039620343180   -0.91222805980182    0.89154558034432
C        -3.35476785388248   -2.12621706531772    0.56364683932149
C        -2.37273250143956   -3.16123133400579    0.54859091954390
N        -1.16046704007824   -2.83019092586319    0.86816544145275
C        -0.13168351291856   -3.77964725184039    0.82071794882630
C        -0.32150643776053   -5.08312903932334    1.28727056558872
C         0.71511409676140   -5.99710470544310    1.22231533329294
C         1.94477549508015   -5.63282527766473    0.69818921538538
C         2.14016303288791   -4.32973842072679    0.24630591864872
C         3.46017413259912   -3.87033362884411   -0.26413659614797
O         3.78011596487239   -2.70362749900398   -0.31642053432841
O         4.25658960444544   -4.86319209127367   -0.63263154821492
C         1.10601531245093   -3.40459141408296    0.30946803514401
C        -4.70450398084103   -2.34490319069422    0.21291884635879
C        -5.56625105118846   -1.28942450523894    0.18357550136603
C        -5.07604326931224    0.01343325797558    0.44051055235525
C        -5.89049368090095    1.14371116119815    0.35714649310978
H        -7.45283722762331    5.54739585647055   -0.53645330248376
H        -6.73270054405548    6.71502324847440    0.58093952060351
H        -7.78337544646585    5.42896625946584    1.19360370326941
H        -5.38598131645860    4.90167806443071    1.62696349959481
H        -5.05056575279238    5.02365653519472   -0.12581115566373
H        -3.57168844381926    3.54432141675383    0.94799318432641
H        -2.13818530170490    1.59752761645627    1.12083217176447
H        -2.62237594217979   -4.16066287211039    0.21181074649591
H        -1.26700009078324   -5.36530708755226    1.72460134989905
H         0.56470095650331   -7.00035875851030    1.58894336150444
H         2.75571370133396   -6.34108473482587    0.64982845156058
H         5.12040868106030   -4.54573416895744   -0.95214884693331
H         1.25664851181724   -2.40439904928985   -0.06844747612461
H        -5.02600139609612   -3.34627617461805   -0.02107594363484
H        -6.60921247784224   -1.42204181674726   -0.05741566196216
H        -6.93570084430687    1.03429530487684    0.11661315670337
Cl       -0.44898156284420   -0.36319571985132   -0.82927131767896
