60
 energy: -91.153866816705 gnorm: 0.000314805601 xtb: 6.4.1 (afa7bdf)
Ir       -0.49096193408447   -1.12486407314656    1.16198928136709
C        -1.97087834283652    0.94206684865449    3.63007507163003
C        -0.83402956000058    0.15115529114360    3.09131776696306
C        -0.63012536560882   -1.24963580935907    3.39592969060248
C        -1.51572506474320   -2.06282523247963    4.27631564582953
C         0.70713486929736   -1.59698290995197    3.01301180818435
C         1.43465765332889   -2.81222366861203    3.47279814077112
C         1.26247593034066   -0.47270603692370    2.31579573570271
C         2.67064929055550   -0.31351253196765    1.86165180172890
C         0.30235991396966    0.62019902259962    2.39228469762602
C         0.61571529795111    2.02380277790935    2.00444099511281
H        -1.88190550873949    0.96307668443862    4.71702809378501
H        -2.92923770245566    0.48804180195433    3.38917965841244
H        -1.96182781978726    1.96228966802874    3.26241189660374
H        -2.56138199157984   -1.81263128053006    4.12179924115718
H        -1.37505142204070   -3.12595166867697    4.10424652874704
H        -1.26958459916544   -1.85354646645088    5.31823919024605
H         0.80902982360224   -3.69982220487378    3.43288633835933
H         2.34600584543884   -2.97883254261504    2.90645761679306
H         1.71725052569905   -2.65534343982784    4.51514572898323
H         2.71163402290613    0.24953445961051    0.93242928954770
H         3.15431019889215   -1.27386547966841    1.71121327428774
H         3.22726459643606    0.24205552005855    2.61723329945857
H        -0.27417168907950    2.64548368874544    2.00213680741346
H         1.06262012252468    2.05616752842574    1.01356283824848
H         1.33315642494400    2.43960354928445    2.71223243809387
F        -4.16222389520069   -3.74606734668692   -1.55209216779789
C        -3.89383768979999   -2.52327101645293   -1.08411621710596
C        -4.75346033628486   -1.47151034336638   -1.33480240888923
C        -4.38184211773256   -0.21839755834230   -0.86971902489394
C        -3.20225179616405   -0.08713929090312   -0.14923955944347
Br       -2.68059210327693    1.62799065842657    0.39634201301477
N        -2.40806611190502   -1.10976054384605    0.15727996590015
C        -2.71684700395774   -2.32857913645913   -0.35003764182472
C        -1.70900104072930   -3.32618746923151   -0.17956302436695
N        -0.59958342783518   -2.97580026650988    0.38449703150782
C         0.49384014681970   -3.91750851320866    0.33361167784295
C         1.10218688993064   -3.94036472321879   -1.07863324446833
C         2.29945508305543   -4.89441708639101   -1.14327406604705
C         2.76404944693598   -5.03767135034860   -2.56697259274729
C         3.73338604727140   -4.19078212719082   -3.08860466199878
C         4.13880889458944   -4.31034390328175   -4.40663211771855
C         3.57481652603863   -5.27722836107390   -5.22219372279298
C         2.60445155545155   -6.12403657351231   -4.71256066345159
C         2.20202193429250   -6.00259918532402   -3.39425544493765
H        -5.66383916890561   -1.62376205797249   -1.89221711063291
H        -4.99368386576021    0.64840127623180   -1.06130957635581
H        -1.86217742253630   -4.31975508213550   -0.58682720096391
H         1.26375953464251   -3.61689634971960    1.04051583404857
H         0.13584231708373   -4.91992792436766    0.58822477185312
H         1.41419518345073   -2.93167838662163   -1.35205750446842
H         0.34549746201095   -4.26037004504041   -1.79722191267834
H         2.00596973171247   -5.87251436127443   -0.75755892954279
H         3.11171953007436   -4.50938251496130   -0.52612002030427
H         4.17934404901649   -3.43472015992872   -2.45905520615606
H         4.89769212577552   -3.64910518923285   -4.79958865255922
H         3.89148838494786   -5.37226102815448   -6.25061101264320
H         2.16350599392113   -6.88205749424680   -5.34388378851581
H         1.44811238637964   -6.67105343006381   -3.00296575940059
Cl        0.27599324093820   -0.29010761137830   -0.93665693710511
