76
 energy: -112.376866021304 gnorm: 0.000547442812 xtb: 6.4.1 (afa7bdf)
Ir        0.05690801805603   -0.59505794301344    1.86454772156715
C        -1.83176598284327    0.92292271404465    4.33813025616445
C        -0.52128995298178    0.41241210779269    3.85862059353015
C        -0.06241757554087   -0.93254115618005    4.07171834458237
C         1.31868343883845   -0.99412547064738    3.67716512772770
C         2.29872666675473   -2.04652427292223    4.06178964337098
C         1.67641658389645    0.27896776034033    3.12075658681760
C         0.53083212656254    1.15745544610078    3.24077756082821
C         0.58896103794724    2.61354019604468    3.05644727588382
C         0.25199841218538    3.45585954161310    4.11527429484686
C         0.36866061199921    4.82500704513128    3.98343162757168
C         0.82686820785322    5.39397894450612    2.79685149841313
C         0.97066988503944    6.85141375584846    2.66787809395595
C         2.09587832799048    7.39774667748807    2.05369272861494
C         2.24142938902235    8.76825992761642    1.94250079661030
C         1.26217246549228    9.61478992725029    2.43642475625208
C         0.13628072383946    9.08184116278433    3.04316172111498
C        -0.00744182150004    7.71161444314252    3.16245970622946
C         1.15696315402931    4.54817022960493    1.73927503044026
C         1.04082021232207    3.17926558474700    1.86536905261377
C         3.06436375249167    0.68848192127350    2.77586006223775
C        -0.79764066529777   -1.96980184881086    4.85112381272876
H        -1.83373145372897    0.89879250612863    5.42866504489762
H        -2.65184287778466    0.29231994662782    4.00030247215853
H        -2.00572585201348    1.94178531320984    4.00861434434745
H         2.76666632709508   -1.73994192239102    4.99899048040559
H         3.08580268150597   -2.14398248292047    3.31960093467399
H         1.82280470944973   -3.00768245770746    4.23214437237612
H        -0.06868157877457    3.03698958947132    5.05632755489432
H         0.12602131225129    5.46320176741777    4.81967004162418
H         2.87098177380295    6.74456419653986    1.68002812157771
H         3.12224767998243    9.17906567823917    1.47011948113595
H         1.37606158501599   10.68527968321921    2.34771281942391
H        -0.63199912556046    9.73843470371984    3.42518808963188
H        -0.89454608598484    7.30287851896721    3.62414076741756
H         1.49053994396261    4.97105744946659    0.80321878433840
H         1.27046549296997    2.54245498844678    1.02496779132696
H         3.51824020806143   -0.00479743739856    2.07094837491656
H         3.07953093431583    1.68565960266315    2.34661405616164
H         3.66777208734945    0.68758052780365    3.68444686917146
H        -1.86871192971929   -1.89862151969374    4.68496628160625
H        -0.46634058446096   -2.97107370886765    4.59133694311030
H        -0.61075172810071   -1.81548542184272    5.91452868568765
C         1.25553615389091   -4.18218566868900   -1.81607361828353
C         2.02055048130560   -3.00949032652486   -1.20432940584100
C         2.25540915408034   -3.02326045922748    0.31732375206562
C         3.50207049933991   -3.81620838310656    0.74523572665579
C         3.49284090461608   -5.31786615100133    0.47771208655977
C         1.01431263203898   -3.46946774505264    1.11928544448899
N        -0.03091386454597   -2.48170484277812    1.05280065164889
C        -1.12447498976592   -2.79102771080049    0.44787634733327
C        -2.11375185276941   -1.77625808895935    0.24145152792519
N        -1.83769219164427   -0.56940155633886    0.78759355042770
C        -2.64043151930014    0.44951963046803    0.49208209836487
Br       -2.18176315263694    2.16310387495299    1.11772842640041
C        -3.79458844830789    0.31819531837236   -0.27276194271404
C        -4.12422640268399   -0.92184156937733   -0.79557225646637
C        -3.25517350999685   -1.96753484572757   -0.54531341239339
F        -3.48461904056488   -3.17885421870328   -1.06007706132040
H         1.62299073538298   -5.14098082020790   -1.46679748897347
H         0.19112699543349   -4.11753007700254   -1.60808756812802
H         1.37327662577238   -4.15367664721318   -2.89746950337074
H         3.00076650755156   -2.94491100455060   -1.68038795493268
H         1.48648325259040   -2.09085653284036   -1.45572652586571
H         2.44795472569754   -1.98004748622641    0.59859704833376
H         3.65685987862512   -3.66466327009167    1.81548538892901
H         4.36182693862598   -3.38075982642012    0.23191494499110
H         2.62078889198996   -5.79835532328920    0.91266509757665
H         4.37828588757884   -5.76440556549117    0.92550562358845
H         3.52431912759485   -5.52993830322415   -0.58662829881768
H         0.65081490435743   -4.42823987367944    0.74354403031080
H         1.31183964008029   -3.58409167355021    2.16218878308685
H        -1.30379719614655   -3.78387386186107    0.04695471160373
H        -4.41837031697291    1.17943804812566   -0.44970653957499
H        -5.01094451027560   -1.07158379744639   -1.39084425108237
Cl        0.83674352284118    0.24414454271990   -0.22317401552152
