58
 energy: -100.535182857567 gnorm: 0.000947941716 xtb: 6.4.1 (afa7bdf)
Ir       -0.83372513198805   -1.08909419233461    1.21671292115168
C        -2.07839549955650    1.32417481145380    3.30910910638848
C        -0.97229554413651    0.41377468440317    2.89652081020603
C        -0.75276759012137   -0.91111406729025    3.43639974373002
C        -1.57921182902196   -1.55081285356617    4.49805638069886
C         0.53874304209105   -1.35880274795215    2.99644794770810
C         1.24786505419396   -2.56846969813114    3.49541798825177
C         1.06314224422085   -0.37622711806439    2.10238895282969
C         2.43888290953649   -0.32979104357602    1.53166118723775
C         0.13495156148661    0.74229034577302    2.07064202233126
C         0.43122116874619    2.05074080912883    1.42493420194494
H        -1.78965394613437    1.82431229102354    4.23469537575827
H        -2.99367591724927    0.77119075424246    3.50302472364606
H        -2.26305572441493    2.09077808096093    2.56133444311224
H        -2.63651447628125   -1.34652823105698    4.35470781760988
H        -1.42686652401815   -2.62567376002260    4.52032415693743
H        -1.28637178872292   -1.14711446644921    5.46792473889044
H         0.55658760850621   -3.38215304530700    3.69714524610612
H         1.99785457472631   -2.91131916737150    2.78834216119621
H         1.75228669163008   -2.31501921828066    4.42846934211610
H         2.42218919164648    0.07894289578986    0.52407653242158
H         2.89289909203689   -1.31594015559162    1.50893726492290
H         3.05928757082277    0.32154867585023    2.14789957169855
H        -0.41082910419670    2.73142786903811    1.49560791150966
H         0.68206028513358    1.91110498278318    0.37517503827454
H         1.29133274967328    2.50449239715404    1.91647401804939
C        -5.62657505049691    1.81418879224941    0.35373462371430
O        -5.87956389605482    0.51631731362225   -0.16796373485455
C        -4.95088784133546   -0.42407677077321   -0.09295198221948
C        -3.70709690892636   -0.29531970583724    0.53221131293370
N        -2.80998186318869   -1.27428846713561    0.57025657198664
C        -3.08939356224001   -2.45697911381670   -0.02682962835289
C        -2.01463930839476   -3.39715213003159   -0.00147555661305
N        -0.89937840028458   -2.99622482030428    0.52335253163989
C         0.21032149277166   -3.85176377995577    0.56602578341287
C         0.11358181681878   -5.11057847970984    1.15655305075123
C         1.22263149539190   -5.93482262035126    1.21054208533393
C         2.42453597148695   -5.50482287978323    0.66320745838141
C         3.63885441890466   -6.38937572716647    0.68907453229566
F         4.74514363544969   -5.72597205542869    1.07727036447340
F         3.51654476470898   -7.43702477273815    1.51704439859809
F         3.92313134720440   -6.90048535745350   -0.52695034011454
C         2.52360400880519   -4.25358774292149    0.06066214965530
C         1.42055975766963   -3.42421440783256    0.02091328979439
C        -4.31836066105738   -2.68490945122734   -0.65684082758149
C        -5.24716217909682   -1.67325513533272   -0.68739078189909
Br       -6.93635421808940   -1.89429038408261   -1.53106650685540
H        -4.75509836700202    2.26294255045455   -0.12625937007848
H        -6.51438319316430    2.39563834497484    0.11522884547420
H        -5.49274148650055    1.77937560070338    1.43635950952595
H        -3.42601286833234    0.63040997848394    1.00899805929660
H        -2.11547085638397   -4.37923688302513   -0.44929546815852
H        -0.82076497761821   -5.43431026659841    1.58755965843689
H         1.15662043401735   -6.90541503600619    1.67611241666731
H         3.46155796805530   -3.93599610189974   -0.36859678742441
H         1.47244710873857   -2.45619463464788   -0.45219259908371
H        -4.51897814821913   -3.63523324201763   -1.12374492933803
Cl       -0.41077910223963   -0.42284844697590   -1.03577573452520
