87
 energy: -130.680799935185 gnorm: 0.000870450728 xtb: 6.4.1 (afa7bdf)
Ir        0.06129634205110   -0.12114131872269    1.70696490973443
C        -1.76832214087997    1.75029710372374    3.96245572470709
C        -0.49240133993485    1.08954046712373    3.56733101061194
C        -0.12505532201407   -0.25271953898155    3.92393462901694
C         1.27779554262240   -0.41583003451246    3.64456478893338
C         2.13498943840536   -1.47896156539989    4.23190899492802
C         1.72530373037893    0.73915642995362    2.94610700035525
C         0.62331977123715    1.69430944753787    2.92087027043383
C         0.77671032490001    3.12431046028338    2.61475974241359
C         0.53659888463685    4.05594560480258    3.62527757581990
C         0.74516617496134    5.40174880990337    3.40146975182862
C         1.19842712167410    5.85957308070397    2.16525243301061
C         1.43965056485470    7.29188482138893    1.93609311199442
C         2.56578561759427    7.71536605061619    1.23265916525621
C         2.80101416586367    9.06215758528813    1.02497447315975
C         1.91112926669515   10.00759675861682    1.50875666438204
C         0.78620225927578    9.59757276810313    2.20607993074019
C         0.55373173579472    8.25156421962696    2.42164453326671
C         1.42381440953642    4.92587301173410    1.15499247742717
C         1.21815133845604    3.57837128124021    1.37427522473082
C         3.14125315981061    1.07223039478962    2.61578280517784
C        -0.95317400371189   -1.17299013969759    4.75733490163414
H        -1.76553346256445    1.88866632648999    5.04445127249020
H        -2.63297236447809    1.13942288233141    3.71249950928107
H        -1.86934415919096    2.72090526000171    3.48659232658331
H         2.44963913041796   -1.13781689060966    5.22019057246805
H         3.03390324284227   -1.64514799291362    3.64545460861073
H         1.58943279570783   -2.40962486952207    4.36423034580735
H         0.21811461292995    3.71975671364836    4.60006098415162
H         0.58072576128780    6.10674496909576    4.20273431762963
H         3.27224546138110    6.98518652238761    0.86529882025643
H         3.68297786961342    9.37688203012320    0.48533810352363
H         2.09449255034297   11.05934993954962    1.34411597159742
H         0.08787854009492   10.33116492952763    2.58236397318064
H        -0.33256116699384    7.93988763954301    2.95575000607093
H         1.74948619617094    5.26206683644021    0.18192006680343
H         1.37376169359376    2.87312022240894    0.57216534253883
H         3.74122109724015    0.17227066028383    2.51034556115853
H         3.20205055914027    1.65371065354512    1.69974642250963
H         3.56177194349085    1.67298281668435    3.42248687446831
H        -2.01316021419644   -1.00858136602894    4.58373801409273
H        -0.71918135583510   -2.21314871452915    4.54634863688729
H        -0.74724037901913   -0.98818791885761    5.81225991962573
C        -6.80715032949257    5.64624832110517    0.42301417418167
C        -5.48297281524019    4.91198814250414    0.56128007070334
O        -5.76148516421468    3.51542292419117    0.54132583215402
C        -4.77096102072356    2.62249392627409    0.64867623715647
C        -3.40163768777211    2.95189024838702    0.78823728641379
C        -2.45589705139156    1.97402864784275    0.91844084598231
C        -2.80992658947046    0.61094782173491    0.89344796267094
N        -1.86729237899232   -0.34962817812074    1.00675787419278
C        -2.19116517729711   -1.62426102118233    0.74613437429039
C        -1.05757821640746   -2.47871666646080    0.56488355934640
N         0.11876843568338   -2.01662429433695    0.83013484289601
C         1.24572823996186   -2.76268643914715    0.33648866460022
C         2.51278852969102   -1.99021829078459   -0.05730046607331
C         3.35932466947482   -3.15536130539833    0.49661281119127
C         4.59418800662958   -2.75537517544808    1.25961554804115
O         4.59862728859285   -1.99809455452953    2.20334158089039
O         5.67626891444248   -3.32173574840416    0.74480644355004
C         6.95161318338059   -3.02194588040445    1.31684363963819
C         2.11872040594795   -3.58955977490383    1.30393786029522
C        -3.52353237239571   -2.03434168448445    0.53248939602154
C        -4.51800204839884   -1.10069329606780    0.55361983678602
C        -4.18372830763689    0.26881684216106    0.68776470937269
C        -5.13602727316143    1.28513569131015    0.59666278981491
H        -7.46913086029224    5.38206037625216    1.24268519973056
H        -6.63255356879067    6.71784879410060    0.43763588658000
H        -7.28854880188606    5.37785303381719   -0.51287246837936
H        -4.99742733241178    5.17998089119278    1.50744274869507
H        -4.81768405261266    5.16984972391706   -0.27161920589159
H        -3.09028846331040    3.98369714707022    0.78269411338577
H        -1.41149824369155    2.23598987125936    0.98862029661237
H        -1.19667714211815   -3.44585412608367    0.09090838101487
H         0.91568009393851   -3.39594657263187   -0.49270885159005
H         2.63300943156744   -1.09221204557339    0.54538134319217
H         2.62395617280112   -1.74371543440117   -1.10845662749926
H         3.63706200921419   -3.87509238097308   -0.27179501574494
H         7.60958794915536   -2.71400731649695    0.50634306324791
H         7.33717589881342   -3.92456178496908    1.78978131117202
H         6.85173755217613   -2.22425068978693    2.05371074085688
H         1.91286811237939   -4.65515898639870    1.34745934669651
H         2.13188340541541   -3.16399437415915    2.30045295298388
H        -3.72897265914605   -3.07922595611063    0.36762028255104
H        -5.55232675819220   -1.37956044054695    0.42887998911198
H        -6.17547517670262    1.03635827345856    0.45575301768281
Cl        0.62931879828619    0.65963939349596   -0.48476214783382
