77
 energy: -123.786984407722 gnorm: 0.000514631273 xtb: 6.4.1 (afa7bdf)
Ir       -0.70088176347185   -0.28604150941569    1.72844223096011
C        -1.87698396758355    1.69176240285829    4.31223045193856
C        -0.80545999931131    0.84745383235992    3.71896145655185
C        -0.68697624677199   -0.57359279636262    3.93726811535582
C        -1.59508544966298   -1.37881681807428    4.80353815061646
C         0.59761897823640   -0.98633012666065    3.45547686859031
C         1.25337259748585   -2.29207375334195    3.73063797692676
C         1.20567067670803    0.12610965164594    2.80331572497022
C         2.61801358854813    0.16939839973234    2.33383216621777
C         0.33813266403751    1.28084296639780    2.99310819167810
C         0.74894422781786    2.66956230316607    2.73648169860798
C         0.75473591867853    3.58631978807428    3.78678945634638
C         1.19332310995220    4.87563193605142    3.55118096151503
F         1.19655341180660    5.75476617397536    4.57490214927717
C         1.62900187833267    5.30083047508595    2.30921509806526
C         1.60894066627344    4.36770930805520    1.28685508471680
F         2.02074262698057    4.74847220001818    0.06027218938416
C         1.18203579200638    3.06742345622310    1.47255998600927
H        -1.83473660701816    2.70562733010851    3.92979033812951
H        -1.73878422250128    1.71873784023335    5.39387634136592
H        -2.86109726671591    1.27352870824065    4.11833319110339
H        -1.52674479942019   -2.43671863159809    4.56655439623918
H        -1.30729882640543   -1.24651142170986    5.84707385272542
H        -2.62648977789487   -1.05619442545940    4.69459723888533
H         1.73896718139276   -2.23322161835921    4.70564154691787
H         0.53374279323584   -3.10542291474035    3.76038821151308
H         2.01317412294608   -2.51686028682489    2.98800955983156
H         2.84748524668637   -0.67876062453293    1.69364602107867
H         2.82413317003104    1.08449271277930    1.78783847954199
H         3.28078881201994    0.12397438889922    3.19854792822774
H         0.45175786851117    3.30333348119871    4.78128075038199
H         1.96981722276024    6.30929171712013    2.14561280677464
H         1.15782894366840    2.38640624343010    0.63607663217903
C         1.42113085142352   -7.58926777988622    1.65527823991185
O         0.46670485660209   -6.54236376702150    1.69120646994768
C         0.80043278233490   -5.33399933243327    1.20654411190468
C         2.04156474446472   -5.00419331576284    0.66300775976680
C         2.24156848247784   -3.71067673378876    0.21272222660477
F         3.44822719561595   -3.39806887250937   -0.30675553197753
C         1.28003847902993   -2.72423788279410    0.28310940672652
C         0.03766369955481   -3.06743166378777    0.81536827801901
N        -0.97662696524323   -2.09977104297248    0.90051397522579
C        -2.16878485820387   -2.38850114027291    0.50541004842574
C        -3.20366429675582   -1.40715012550679    0.66093458877609
C        -4.52643349861922   -1.73099869692045    0.41316115292993
C        -5.49596403762303   -0.76590596913965    0.67378403476996
C        -5.09406621146462    0.47771427820689    1.08105675641721
C        -3.71640046056650    0.80074020311839    1.22078486176242
N        -3.34064102767360    2.06115029421337    1.52281565720110
C        -4.29350477723943    3.06622751667765    1.96894741586510
C        -4.82301121035089    3.89650354702618    0.79862652912650
C        -3.64590804352591    4.56243173202810    0.08915904323578
C        -2.61910806382627    3.50506101508914   -0.30762400294927
C        -2.18200201892276    2.68658208613735    0.91147822183262
N        -2.79219134077412   -0.18291392737385    1.09273209894335
C        -0.19791403242217   -4.35680190617242    1.27414681084703
H         1.71301452779936   -7.82381366113655    0.62864706594092
H         2.30614586648955   -7.33787946764287    2.24490842662163
H         0.92256967018928   -8.44946303954916    2.09631501563743
H         2.84617430384732   -5.71488778527225    0.57863305533823
H         1.46812561881826   -1.73502407101556   -0.09891534905121
H        -2.39782350171958   -3.34819233044781    0.05482824609589
H        -4.78651400338492   -2.71033697080506    0.05046362780762
H        -6.54256483922172   -0.98490001007127    0.53382626655296
H        -5.83447141693150    1.24084963414701    1.24168635531364
H        -3.74867227552601    3.73050130439052    2.64569234030364
H        -5.09796438321206    2.60441837617568    2.53839838332960
H        -5.51942610034617    4.64914412483721    1.16883090744229
H        -5.35504171299033    3.25639886174102    0.09278958703695
H        -3.18044839611331    5.29073869079154    0.75692813854574
H        -3.99196359875631    5.09813929700393   -0.79575571545711
H        -1.73904121625863    3.97455601584761   -0.74791424674779
H        -3.04833012671428    2.83403417585827   -1.05433821807808
H        -1.46881620026337    1.92887912351305    0.59845876316472
H        -1.70842349335123    3.34581074222890    1.64176441764089
H        -1.14533376570636   -4.62689710585313    1.71134323902032
Cl       -0.01262277631477    0.33217919060075   -0.49403071236603
