60
 energy: -96.084628916723 gnorm: 0.000631161131 xtb: 6.4.1 (afa7bdf)
Ir       -0.47236436392684   -1.17717701560423    1.32248262813228
C        -1.44443989449828    0.90582130805687    3.96468701089775
C        -0.41509865231561    0.10910991993355    3.24710033783535
C        -0.14493580356125   -1.28064992555280    3.53002788376736
C        -0.83908291156976   -2.08545022562974    4.57390279469224
C         1.09013477335050   -1.63508966019010    2.88590530743806
C         1.89699686609535   -2.84899159558376    3.18467241697746
C         1.49916966070317   -0.51974315854098    2.09224646836118
C         2.78677797304258   -0.36980619674909    1.36225583869101
C         0.56112275161860    0.56683581086474    2.32398769179754
C         0.79470376399993    1.96483142640538    1.86310123927554
H        -1.17340864049026    0.94195393485919    5.02032390161366
H        -2.42814139203024    0.44822338373660    3.89162206264001
H        -1.50434161270427    1.91911298509969    3.58373091841831
H        -1.89628327221810   -1.83966156772115    4.62013242717643
H        -0.72632692467260   -3.15010961901033    4.38883475832832
H        -0.39855829280554   -1.86306221873235    5.54674316354340
H         1.27061258527814   -3.72001908900500    3.35593963143660
H         2.59527862035204   -3.06997292690015    2.38379366689836
H         2.46893236274928   -2.65813644495051    4.09383850478075
H         2.64149579252434    0.18009828397898    0.43536732670230
H         3.23019460501543   -1.33423930562305    1.13395306197521
H         3.48281345731304    0.19501162176912    1.98332797627249
H        -0.06332610693109    2.59685311459408    2.06716018881596
H         1.00022470228046    1.98499440908682    0.79530964520265
H         1.66299429864363    2.37087512637992    2.38185536150227
C         4.51761958297498   -5.52733221652565   -0.47932715569160
O         3.48972200832606   -4.55296580488871   -0.42172332736777
C         2.31735599633661   -4.86688696676261    0.15571960107104
C         2.02232145406694   -6.09969817596888    0.73972913153445
C         0.77754706911915   -6.30120519311886    1.31710566618051
Cl        0.42667575824226   -7.83781809397817    2.04566622684289
C        -0.19226462390704   -5.31596386376043    1.32254030779951
C         0.11033586127692   -4.08313542413207    0.73885660435803
N        -0.84971921337470   -3.05984392756443    0.70576493076204
C        -2.04674272390057   -3.33902145296926    0.28667532355434
C        -2.96871526368605   -2.25631711352171    0.17789894185106
C        -4.21135483510841   -2.36045218072097   -0.45497960742344
C        -4.97324357359034   -1.22591855102468   -0.62054652423576
C        -4.45775389116032    0.00012420586844   -0.18099455777054
C        -5.24570835693321    1.16631075826612   -0.31060501935059
N        -5.91654515927225    2.08990670184946   -0.41639632586571
C        -3.19141181725936    0.04008604159406    0.42262654470328
S        -2.46325539997398    1.55634843203292    0.94292393862416
C        -2.36140512693636    2.45434962380548   -0.63495485677301
N        -2.49091652969112   -1.07281644708761    0.64183690940975
C         1.35304696563350   -3.85432119773427    0.16874923878176
H         4.20061575351075   -6.40521795752482   -1.04714714729155
H         4.83429100647530   -5.82749916091675    0.52261992770961
H         5.34601986589742   -5.04382938290081   -0.99258563662417
H         2.74109085420823   -6.90095965159881    0.75256942180040
H        -1.14695723927877   -5.48769069052016    1.79077405768887
H        -2.31365272397311   -4.33226599500902   -0.05338876122088
H        -4.54943006586327   -3.31839514832737   -0.81393294603363
H        -5.94757016920949   -1.26232222166544   -1.08283095954456
H        -3.34864333812364    2.63274225861543   -1.04583914973771
H        -1.88443598772366    3.39942772269337   -0.39675392626469
H        -1.73756428118933    1.87846088902854   -1.31184908247977
H         1.57211738578707   -2.90910753441052   -0.30200430508897
Cl       -0.03193658693022   -0.49293065626775   -0.91576269703352
