82
 energy: -106.832063913201 gnorm: 0.000998633282 xtb: 6.4.1 (afa7bdf)
Ir       -0.14033647593681   -0.02413775086655    2.15640397236466
C        -1.72157076794348    2.26087318962942    4.26598958500707
C        -0.67947062703841    1.22873357703091    3.98497584642090
C        -0.92486998809389   -0.18509634780568    4.23274614393531
C        -2.22724503876573   -0.73852902432068    4.70101047942232
C         0.31812412763462   -0.86822805054852    4.20735440900124
C         0.54907830082409   -2.28208333088371    4.61921882757906
C         1.31755819743102    0.07759204397303    3.79398030884365
C         2.79027011273268   -0.16822874231972    3.77109254413234
C         0.70268012914011    1.39777721846224    3.74146232853585
C         1.52492145324344    2.65551505494900    3.68464990856001
C         1.09204176688920    3.70489256501315    2.65724276071311
C         2.09100050306353    4.85906909635054    2.65702991140301
C         2.17218264736563    5.49707835711872    4.04166425010248
C         2.56190640446695    4.45733236407796    5.08921698804051
C         1.57830780049486    3.29039798701721    5.08529565835793
H        -2.64362936352742    2.03908956798251    3.73408787998837
H        -1.38688207194079    3.25656987150917    3.99879452815950
H        -1.94373000823709    2.24873451145254    5.33390772098975
H        -2.28534241261971   -1.80978343404824    4.52916897334247
H        -2.33077156375622   -0.56051185425154    5.77198806865190
H        -3.06142408656641   -0.25674037260243    4.19748002542247
H        -0.31721174756373   -2.90289281065418    4.40736984512942
H         1.41728662903962   -2.70844176914843    4.12529718324030
H         0.72679924675973   -2.30863707136712    5.69503444146452
H         3.01280511890925   -1.23064790339650    3.80961765287004
H         3.24091189247548    0.25358611985036    2.87474721583366
H         3.25402653621592    0.30528395275907    4.63671714113804
H         2.54459315279891    2.36403972294968    3.41633003529062
H         0.10770077449513    4.10480865525635    2.90051351142281
H         1.05056138965830    3.24721227944059    1.66844364799886
H         1.79029923803780    5.60695650133137    1.92084810096154
H         3.07739421445683    4.49015927784662    2.36749623892814
H         1.20243588610589    5.92834377055218    4.30153310749101
H         2.90332854123283    6.30806649880561    4.03572698100770
H         2.58212337274338    4.91688673669028    6.07995195939128
H         3.56780148089129    4.08877891814611    4.87410678652008
H         0.58804318640465    3.65030718331857    5.36649566768352
H         1.88545076952272    2.54420182850131    5.82108451323514
C         3.18409434226883   -2.56758011896784   -3.06097657689669
C         3.71818458503259   -3.14342532781168   -1.99989404326730
C         3.18250902230988   -3.12856235458367   -0.59988518586771
C         1.85916326305683   -2.38836762089254   -0.43577151201634
C         1.39294311339388   -2.43030887857202    1.02633962171646
N         0.12236235427090   -1.75890152251956    1.18929083693544
C        -0.93991225560869   -2.32407831552651    0.74619632464966
C        -2.19179440436339   -1.61641940291350    0.82072175471327
C        -3.39654423971080   -2.25780268848241    0.60330345919863
C        -4.56820506247244   -1.52377153267913    0.78524775592670
C        -4.47799204698298   -0.18430293169114    1.04983867087992
C        -3.20986560217192    0.45812468547005    1.12232339041562
N        -3.12673855233761    1.79579132347457    1.18937353582286
C        -1.95024211586028    2.50827263091647    0.72218014057110
C        -2.36190705383446    3.56103660539832   -0.30398907652389
C        -3.23116873704214    4.64442736411364    0.34542851385613
C        -3.95579061072201    4.07140130257777    1.56638970957873
C        -4.32770309228575    2.61126820717022    1.33651328451853
N        -2.08482578487471   -0.29681775654428    1.12875670202318
H         2.27117755783473   -1.99985453179641   -3.02172162344810
H         3.65173335783995   -2.63790340432275   -4.02830885452239
H         4.64328037801250   -3.69789340639092   -2.10436392087753
H         3.94116746260536   -2.67444418870081    0.04366511748692
H         3.06830432166613   -4.16657868626561   -0.27199886551189
H         1.10247699647151   -2.84691770212049   -1.07364590588929
H         1.97510567719028   -1.34746666230131   -0.73584408230494
H         1.29907406049058   -3.47272937375700    1.34747479646947
H         2.13462634464848   -1.92506998773925    1.64394435210633
H        -0.91737095531830   -3.31790833105585    0.31042994617599
H        -3.41967693738862   -3.30102666847685    0.33974143045134
H        -5.53186492701813   -1.99965229702634    0.69631821061136
H        -5.37681803707076    0.39465028919358    1.16179573039785
H        -1.43327236079626    2.98731876893607    1.55392460485219
H        -1.27195314369138    1.79554593934739    0.25634294676497
H        -1.46364633392439    3.99747420145381   -0.73839768149673
H        -2.90801927160839    3.06829583929592   -1.11014732424117
H        -3.95506867704533    5.01596467360344   -0.38077663166148
H        -2.61840386449219    5.49151167525485    0.65403028812099
H        -4.86563558118128    4.63775041945382    1.76566224213727
H        -3.32372223922957    4.14793692696955    2.45068624841024
H        -4.90141957634096    2.24829234415632    2.19354344364679
H        -4.95446966466979    2.54179443449452    0.43931172756133
Cl        1.03701556990155    0.90565967200403    0.31236234993052
