54
 energy: -93.938780901151 gnorm: 0.000436166605 xtb: 6.4.1 (afa7bdf)
Ir       -0.84579212565137   -1.25113507870003    0.88270568655301
C        -2.07310577865032    1.26642381791682    2.87861821387291
C        -0.96083962383553    0.35881022386597    2.48017217774327
C        -0.69712893494085   -0.93340355911467    3.08229708370274
C        -1.47670206687147   -1.52711624921313    4.20358988791204
C         0.58837490763777   -1.38072693773819    2.62509625181670
C         1.34239798110376   -2.54364110503898    3.16682761967350
C         1.05907123257012   -0.43876784886372    1.65667006551914
C         2.41683832071589   -0.39048100449770    1.04571141605406
C         0.10916455270494    0.66352988998777    1.60498135885690
C         0.35459661735223    1.93935407624111    0.87989078599397
H        -1.76071855415572    1.83505074093881    3.75557997403431
H        -2.96716266526978    0.70966484765715    3.14717658623195
H        -2.31361022226201    1.97717618687242    2.09204921141525
H        -2.54263044460179   -1.35548215867155    4.08069164937642
H        -1.29660136514500   -2.59462152544695    4.28749914196079
H        -1.16720894710823   -1.05623208206743    5.13753997258437
H         0.67727578110081   -3.35764747674265    3.44097157620551
H         2.07359091058454   -2.91063487574193    2.45274336120638
H         1.87352062701748   -2.22439234148128    4.06413988107239
H         2.36448407557569   -0.02726047949453    0.02233550234105
H         2.89197062163271   -1.36634981414782    1.05626390286089
H         3.03708277128738    0.30180446687601    1.61577548914492
H        -0.50745467578677    2.59750150287187    0.92542332034467
H         0.59244843300370    1.74714620434392   -0.16462670935949
H         1.20797626482848    2.44729159682753    1.32905343049267
F         3.57080198704091   -6.38599875033238    0.35029215639477
C         2.47654035266974   -5.60231024592710    0.33836028951867
C         2.55011621510324   -4.35560645553497   -0.26401237684407
C         1.42951574675204   -3.54835674827648   -0.26521820501418
C         0.24279206368931   -4.00007838598107    0.31416649209614
N        -0.88868253038490   -3.17153516432755    0.28569499899960
C        -2.01697464780676   -3.63911975607931   -0.15901754714020
C        -3.12414577025404   -2.73583981294118   -0.18438930081853
C        -4.37316765203108   -3.02614873566922   -0.74393609114285
C        -5.34546004073147   -2.04911459702273   -0.76229183281524
C        -5.03157534015168   -0.79600304388705   -0.22532536746983
C        -6.05535262798640    0.30792192576396   -0.25478773061367
F        -6.20218105769642    0.82198524147193   -1.48846952448698
F        -7.26931577328345   -0.11956811251223    0.12416546313509
F        -5.73634922989920    1.32991063373135    0.55039434039714
C        -3.77474752349618   -0.57142800294570    0.31257214654148
N        -2.84561231165793   -1.51832274338060    0.35026861471685
C         0.18735972127099   -5.26252192956424    0.90717061507067
C         1.31211940785315   -6.06515433551250    0.92999720957013
H         3.47133577598946   -4.03660587815291   -0.72411366160996
H         1.44417346756163   -2.58296718417414   -0.74652808251943
H        -2.10356075524317   -4.64814860746266   -0.54364952894722
H        -4.55885788469026   -4.00233394616154   -1.16177469990080
H        -6.32316506599075   -2.23514758812569   -1.17929694946466
H        -3.51545075564001    0.39256489976346    0.72540178432461
H        -0.72561204519775   -5.59942033390228    1.37258732945393
H         1.29656180823536   -7.03822018572419    1.39374568264991
Cl       -0.56857522687342   -0.62322017457040   -1.39934406170643
