80
 energy: -120.278251222077 gnorm: 0.000953806928 xtb: 6.4.1 (afa7bdf)
Ir       -0.40473379289496   -1.24102020848016    1.76501879609105
C        -2.59652748001734    0.51329386376666    3.76823252241203
C        -1.25635452016228   -0.10496017297835    3.56839409608070
C        -0.92279366856394   -1.45969927578673    3.91298287484289
C         0.51012407316782   -1.60254416611904    3.81817623269460
C         1.28193903881074   -2.72066115432601    4.42948792202668
C         1.03495494384854   -0.40039255334010    3.27310295964465
C        -0.06851257737439    0.53961125584730    3.11940106028992
C         0.10012973389478    1.98316263234506    2.88373359057095
C        -0.30677392769834    2.88282175471351    3.86859838453954
C        -0.11111682400343    4.23906738621749    3.70168561292672
C         0.49213610686984    4.73874145415789    2.54849117194644
C         0.71194774595141    6.18241135603491    2.37495040249245
C         1.90383938142160    6.65451463372537    1.82852147105955
C         2.11471942358113    8.01109958232663    1.66444383995520
C         1.13617346494158    8.91845523189531    2.03705020123726
C        -0.05293021541526    8.46026869875999    2.58064271832398
C        -0.26256663533478    7.10418898865969    2.75212321424895
C         0.88758141849581    3.83574876327042    1.56306432816352
C         0.69735409346989    2.47830173890673    1.72682369367771
C         2.47285527514252   -0.02876290800524    3.15420162127416
C        -1.84384196380581   -2.42123678354570    4.58559965745711
H        -2.78936939116256    0.59173807885862    4.83886605770389
H        -3.38543439860990   -0.09909503250408    3.33680902345126
H        -2.63988819045436    1.50648909738104    3.33160322407737
H         2.31168860602033   -2.72984047906407    4.08865112575696
H         0.82445491968583   -3.68538704429760    4.22939033284184
H         1.28664968659989   -2.57539391779710    5.51073801726506
H        -0.75007152961684    2.51452105812246    4.78099097253051
H        -0.40903297851211    4.91948316204144    4.48529064556095
H         2.67867974296634    5.95486888189898    1.55050213018570
H         3.04631728127238    8.36380211326939    1.24596071286705
H         1.30041587725786    9.97790334575133    1.90536571822860
H        -0.81993889921771    9.16416617985537    2.87000159884991
H        -1.19826654254996    6.75632829305520    3.16466676623938
H         1.33392143755567    4.20422952660554    0.65150553878024
H         0.99006328976536    1.79677862687874    0.94237426504322
H         3.10219804204663   -0.90463254918843    3.03001270115031
H         2.63111333635803    0.63961121128358    2.31261948563530
H         2.77694791241176    0.49517402794255    4.06137487050545
H        -2.86208192838961   -2.30299646252696    4.22575542382372
H        -1.52772242955044   -3.44805217533327    4.42619819765326
H        -1.84029130701201   -2.22968041540631    5.65940164986734
C         5.01224176429744   -2.53785349152856   -2.11892855557502
O         4.37874459015204   -3.22323073007293   -1.04002985938612
C         3.17445079529937   -3.74293991142552   -1.26705582463259
O         2.59681135276319   -3.69128835313715   -2.32486028060765
C         2.63292637237819   -4.38687786850024   -0.00925564597544
C         2.21110814393428   -3.38207236888470    1.08481572188949
C         0.81483034294590   -4.02785699307482    1.12441685337195
N        -0.30464645591638   -3.13069923624769    0.99551536180516
C        -1.33475659562128   -3.50965157438107    0.32046166671885
C        -2.37801727806744   -2.55121364592582    0.09897628400683
C        -3.55656291479823   -2.85250930109081   -0.60980022300144
C        -4.46845756698014   -1.85949435220898   -0.83262186369648
C        -4.16996213554352   -0.54229923546711   -0.42387255726220
C        -5.02866560136133    0.54163174325703   -0.69398836170232
C        -4.67457523133050    1.81718166533929   -0.34618818617655
C        -3.43641086483579    2.05953631222891    0.26964058471734
C        -2.59176141677293    1.02639784572082    0.57518341532513
C        -2.94132742538298   -0.30083337689872    0.26182210978134
N        -2.11194922436875   -1.32739394261405    0.57562226865225
C         1.18624381092436   -4.88905848216032   -0.10284170842497
H         4.32881342132613   -1.80555145299915   -2.55174187210117
H         5.30860296724992   -3.24787018096266   -2.89278346062952
H         5.88435654423411   -2.04989649320808   -1.69301324198764
H         3.35434120407627   -5.12348429527053    0.34219007792374
H         2.18459870755776   -2.35440501640013    0.73026564933448
H         2.78734817319818   -3.44198993692534    2.00104797385235
H         0.66118994246137   -4.62995376633678    2.02413782802936
H        -1.40308610789256   -4.49779004814769   -0.11969727318758
H        -3.71929310436106   -3.86104174235610   -0.95257712815775
H        -5.39909647300922   -2.05778520841854   -1.34148563917458
H        -5.96259783679836    0.34450263549039   -1.19732787724949
H        -5.33326344930125    2.64360165156878   -0.56238111787690
H        -3.14715261045802    3.07302507218150    0.49937729201515
H        -1.62616248154162    1.21934334837509    1.01376392241007
H         0.72393552334484   -4.54585670286032   -1.02712245266812
H         1.04523550011377   -5.96065057392007    0.00504536026806
Cl        0.70711298689149   -0.50673563762318   -0.22964907060146
