71
 energy: -109.458750871362 gnorm: 0.000425004542 xtb: 6.4.1 (afa7bdf)
Ir       -0.69214893551564   -0.62603691391105    1.26711762509522
C        -1.96887013598921    2.06530928430489    2.99002020979011
C        -0.80892288091641    1.22473655875558    2.57783903957672
C        -0.30174046926161    0.09689816430297    3.33179533774293
C        -0.84422412618222   -0.37279965232915    4.63819213000201
C         0.97138558782280   -0.27198362486019    2.77456148961849
C         1.94221257470911   -1.21525428570451    3.39378547441978
C         1.18122391748381    0.51959020885803    1.60822076108465
C         2.42611905389982    0.59630791960511    0.79254906447724
C         0.08357173248735    1.47151069726729    1.50657371740014
C         0.05751704489030    2.61043397706969    0.54678613738091
H        -1.63300384220099    2.77137716970948    3.75078823046009
H        -2.76344067779017    1.46360005300545    3.42388401051100
H        -2.36324237818477    2.63830393598459    2.15522913628345
H        -1.92812680407977   -0.30382313506923    4.66368057949411
H        -0.55105734439830   -1.39935383939035    4.83819386412914
H        -0.44616844842232    0.25452680546739    5.43638379842480
H         1.43648348650512   -2.02971184898853    3.90513793602532
H         2.61756991092052   -1.63467471444562    2.65392300029696
H         2.53593042175054   -0.67049625971027    4.12864102563158
H         2.18713472940640    0.74161372278269   -0.25848215730746
H         3.02423920956561   -0.30362795977090    0.89960214474307
H         3.01961723211625    1.44894164963004    1.12410607823258
H        -0.89722226075813    3.12698071612911    0.56444512374902
H         0.24496234754243    2.26041149166507   -0.46627648300838
H         0.84294315677843    3.31925316668799    0.80913471560595
C        -8.81306616761761   -1.96863791812464   -0.42054153912768
O        -7.48545763578723   -1.60037990373061   -0.04624082061027
C        -6.56567104219693   -2.55545011100695   -0.06125612323613
O        -6.77410445816261   -3.70806028860335   -0.35795514761854
C        -5.21713567650145   -2.04124051608925    0.33480082250997
C        -4.97557329887256   -0.68596015808285    0.57679593841646
C        -3.69742050499319   -0.28548654063669    0.91537030433426
N        -2.68117674340333   -1.13690032341675    1.03356437679501
C        -2.90160290714724   -2.45482176337321    0.79365878422400
C        -1.72014087384462   -3.25933339403960    0.88523209966803
N        -0.60809083655752   -2.62875304748930    1.09465452940446
C         0.59872850173857   -3.33597943718454    1.19433424743538
C         1.68314719309003   -2.94861692949470    0.40859716505649
C         2.87004612466829   -3.65175427216012    0.50540101140684
C         2.99252461613519   -4.70914208918057    1.39083504924039
C         1.91704141675960   -5.09832720305451    2.19144450305986
C         2.04536804726832   -6.20747488712962    3.14648950408849
C         2.76846731779444   -7.35146343261241    2.82391693717984
C         2.89697153196891   -8.39866811187856    3.71832739052175
C         2.30472892055988   -8.31862416317220    4.97566436873712
O         2.36941143295105   -9.27827018922024    5.93581311238697
C         3.10652840259334  -10.45435701383340    5.67608648854286
C         1.57798955653876   -7.17185523233570    5.30810193776749
C         1.44807006073462   -6.14021301232112    4.40679918665677
C         0.71397047325955   -4.40838437089291    2.07410000942335
C        -4.16247004702132   -2.93486953081004    0.44337149329059
H        -8.83379268561658   -2.28394750669134   -1.46474214769152
H        -9.42085187028483   -1.08048618590449   -0.27434029687477
H        -9.16700124930385   -2.79013536087474    0.20403884783607
H        -5.77208110927577    0.03462745898550    0.49777311262452
H        -3.48019705613000    0.75634706985169    1.09588377731449
H        -1.75362128996141   -4.33251935987394    0.74123230408741
H         1.56472012711045   -2.13351098606389   -0.28763676039831
H         3.70980670504866   -3.36812506994081   -0.11031942897418
H         3.93441880677743   -5.22744689236862    1.47888877074805
H         3.22140315207094   -7.44308997873186    1.84805874633264
H         3.45828342591736   -9.27139872748770    3.42484698736303
H         4.15954548218124  -10.22992635010059    5.48159668844656
H         2.68660369096327  -11.01096756592745    4.83282137836914
H         3.02603688725740  -11.05467281432294    6.58045141085052
H         1.12790271073655   -7.11851427258925    6.28665780931211
H         0.89773147910192   -5.25801486408667    4.69532527262153
H        -0.13495225661862   -4.69542296090089    2.67547512667315
H        -4.32100343744259   -3.98307503192210    0.24329169368763
Cl       -0.67952101867940   -0.49954904817230   -1.11975391170344
