75
 energy: -125.519618443612 gnorm: 0.000425463382 xtb: 6.4.1 (afa7bdf)
Ir       -1.01187148087580   -0.76796683390503    1.23801418377264
C        -2.16360860885473    1.25657642056858    3.77394096512126
C        -1.03391269338473    0.51954333555498    3.14347392037771
C        -0.67893776070431   -0.84027233790176    3.44427038864668
C        -1.33454327018544   -1.68259347872655    4.48470179511217
C         0.58491383524485   -1.12035981677053    2.81399323237429
C         1.44020333965784   -2.30336221538655    3.10542212309119
C         0.93497899675625   -0.00036575684280    2.01297121882954
C         2.23447547481460    0.21632512520627    1.31696331412378
C        -0.07456784092334    1.03144502521648    2.22468444003742
C         0.08742323445407    2.44181088008928    1.83262781117263
C         0.11771939779070    3.41730542727812    2.82835511443642
C         0.31621664081037    4.73709103934433    2.47038394861200
F         0.34877993637008    5.67225543861627    3.44222781993128
C         0.48321980361098    5.13698947828784    1.15663431973057
C         0.44458267879784    4.14527289228679    0.19189458558868
F         0.59875528259939    4.49770615884616   -1.10030852915523
C         0.25180905519211    2.81222566301094    0.49991593956667
H        -2.31742026504843    2.22360621730902    3.30536385019769
H        -1.93837935956598    1.40751818327746    4.82997881196151
H        -3.08740237852853    0.68576911258705    3.71488821420998
H        -1.19466333840833   -2.74017799977745    4.27976757284313
H        -0.88613175812314   -1.46576191868489    5.45492050144779
H        -2.39740768943802   -1.46864556492607    4.54808592545362
H         2.06189447379501   -2.07422651283635    3.97171462059012
H         0.84280009218226   -3.17954739608773    3.34057003420342
H         2.09443839854781   -2.54225718448593    2.27221562716195
H         2.76443159140109   -0.72266403520195    1.18896305140827
H         2.08704061432350    0.67888444999406    0.34477452618049
H         2.85554843222062    0.88269446975697    1.91583214788090
H         0.01526269858603    3.15913474429362    3.86941555603896
H         0.63705392008850    6.17106570305807    0.89713150037911
H         0.20474207432009    2.08109060950857   -0.29246654235327
C        -8.25383757764661    4.97238178665605    0.20180466021196
C        -7.73615237734871    3.54302423080041    0.20907040115982
O        -6.32637794205754    3.59244083952101    0.40777447949297
C        -5.61973261794872    2.46152751991770    0.46250071128986
C        -4.21884305777874    2.63349967253091    0.62919781407687
C        -3.38214785878342    1.56550989454502    0.72772361291854
C        -3.87948806117024    0.24575433684156    0.65107365395625
N        -3.04844377888379   -0.81208916710244    0.75628071489451
C        -3.52260902073350   -2.04985688070301    0.52647277893208
C        -2.51862333246483   -3.06525435856887    0.49064904822100
N        -1.29565223302872   -2.68891922964673    0.69559626533821
C        -0.24464174110054   -3.61206393747240    0.60832727625767
C        -0.32461646647182   -4.85040616508455    1.23955973169257
C         0.73674969456574   -5.73315047441189    1.13096191043656
C         1.84349195089528   -5.38408104269365    0.38695765928982
F         2.86483173302247   -6.25880097461320    0.28278817451862
C         1.94699566606394   -4.14347762442500   -0.26793168454154
O         3.06895966502844   -3.91226734917858   -0.97223900067974
C         3.18143441384485   -2.69693329565981   -1.69218468338604
C         0.88658696091508   -3.25592594940754   -0.12703146037918
C        -4.88794084674283   -2.29957930471707    0.28513576820724
C        -5.76451208084889   -1.25310950833464    0.26795267166931
C        -5.27971681000897    0.06495256337311    0.42782722352408
C        -6.12715403396340    1.18037199739798    0.35680915697979
H        -9.32955828604532    4.96977449351148    0.05389111812796
H        -7.78648547348150    5.53669140090693   -0.60043530083164
H        -8.02615108189788    5.45787297051708    1.14669341550626
H        -8.20259619932573    2.97266337907193    1.02147207297546
H        -7.95407910083183    3.05268454287877   -0.74762247935610
H        -3.84310422341171    3.64320963988986    0.66687624227133
H        -2.31793310511184    1.71445595233715    0.81547974690694
H        -2.76310780508229   -4.08781434607082    0.22853597889792
H        -1.18873497311910   -5.11076392574464    1.82857574925889
H         0.71400063706585   -6.69618634544991    1.61461854425348
H         3.16658082167097   -1.83568944530856   -1.02053401365728
H         4.14342591450106   -2.74958104825516   -2.19678752681948
H         2.38305823626766   -2.60026221520377   -2.43140636125743
H         0.89742683893658   -2.29367802093061   -0.61364271740627
H        -5.21326409524163   -3.31382868725395    0.12328866468841
H        -6.81980406154526   -1.41314816423665    0.11031939483147
H        -7.17879437236456    1.00420491436620    0.19917827975892
Cl       -0.65193444597664   -0.22988299738860   -1.05459768124187
