72
 energy: -96.368864178267 gnorm: 0.000508090538 xtb: 6.4.1 (afa7bdf)
Ir       -0.22678399084338   -0.67086033169541    1.76343865354945
C        -2.12633767143392    1.12135962799042    4.02697946246714
C        -0.81617159203038    0.55636705877540    3.59815290948873
C        -0.38035529559126   -0.76305369230358    3.99109573091640
C        -1.14685729991453   -1.68593739948596    4.87628816230725
C         1.01305563855832   -0.88798956447905    3.66219209082719
C         1.92379156702906   -1.94980606239342    4.17531248308671
C         1.39564002420516    0.28422296499739    2.94874872740492
C         2.78364113920275    0.64675777011278    2.54257376391249
C         0.25331239685221    1.19208839062871    2.91294592143730
C         0.38058224238297    2.62675109310324    2.47682234461799
C        -0.69018966167732    3.11162090309629    1.49377289129794
C        -0.37412531420814    4.53881180487348    1.05471534952786
C        -0.32190833350740    5.46982888339588    2.26359301626705
C         0.71687456073320    4.98221694431252    3.27039728011754
C         0.41844612299933    3.54991969500206    3.70586309666247
H        -2.93511181299745    0.41094591310903    3.86874863869548
H        -2.36164248507041    2.05024029221120    3.52017987076553
H        -2.07517623627465    1.32369241156605    5.09794179474017
H        -0.82657328116023   -2.71544108342598    4.74523945196294
H        -0.97480162930480   -1.40747677445845    5.91671936326143
H        -2.21383303674103   -1.62379675428495    4.68309429240338
H         1.39887070062661   -2.88864417312243    4.32899338257278
H         2.77222343472286   -2.10834019725440    3.51549635003479
H         2.31146181667063   -1.62542158588315    5.14220601692099
H         3.43826524867219   -0.21846391299298    2.56783367053756
H         2.79983298056503    1.06325723424361    1.53773530467034
H         3.17585519057738    1.39825167416541    3.22795061466635
H         1.34041220548295    2.72374074458167    1.96071120428914
H        -1.67688683220942    3.10781020329030    1.95698007710149
H        -0.70842445902800    2.45193713809165    0.62512576590336
H        -1.13406004241070    4.88572127781380    0.35161855725698
H         0.58762405626859    4.55872201436319    0.53696354743711
H        -1.30467180850152    5.50321545257989    2.74051091635148
H        -0.07767317240771    6.48378146459721    1.94036217658575
H         0.72314127689512    5.63705083780413    4.14422802716303
H         1.70880061649952    5.02748643057760    2.81451442849156
H        -0.54186254216150    3.52183818736477    4.22171452552501
H         1.18537539233550    3.20784978727450    4.40357045199947
C         5.82718942312266   -2.96988566839253   -2.42305024563379
C         4.83590513443124   -3.28776295857443   -1.30842865468683
C         3.90755277408982   -2.10611586631218   -1.03126499490883
C         2.98815062115006   -2.31119068729996    0.17308861293093
C         1.97904521550319   -3.43774547908790   -0.03210502704434
C         0.93353338455648   -3.50198609228838    1.09646165935379
N        -0.12571917389351   -2.52724305696659    0.93468644998209
C        -1.07406035069637   -2.81845430716422    0.10591787776225
C        -2.13854203884943   -1.87539668335426   -0.05306986432108
C        -3.18842393093326   -2.00481082629925   -0.96633236409696
C        -4.15639596399025   -1.02483077605808   -1.02834514901370
C        -4.03995439239092    0.06490715562491   -0.16626152085618
Br       -5.34710808785894    1.44856949331738   -0.16607158802653
C        -2.97099672000516    0.14122021620696    0.71473853557701
N        -2.04434531919205   -0.80594023422392    0.77606068215074
H         5.30182432323385   -2.72505632562259   -3.34420685414562
H         6.47556666585922   -3.82205833565592   -2.61560256776187
H         6.45142748700291   -2.12056444215560   -2.15198141899119
H         5.38801890113172   -3.53727391417603   -0.39928849263688
H         4.25121902622585   -4.16260255855990   -1.59736230960257
H         4.52026225137435   -1.21975876264162   -0.85112409221330
H         3.30209656337207   -1.90563174594932   -1.91760668618138
H         3.59881999563675   -2.52682248806246    1.05221267735972
H         2.44349873610520   -1.38251098610489    0.34600466660913
H         1.47025738195724   -3.29814710602855   -0.98698979412557
H         2.49850689367135   -4.39554582110022   -0.05800120096344
H         1.43025998079280   -3.33147370762618    2.04938551982065
H         0.48664943386828   -4.50036489779622    1.10265581720312
H        -1.08162446741390   -3.75125570268506   -0.44777771937112
H        -3.22686230811804   -2.86197643561757   -1.61912897174288
H        -4.97897256532510   -1.09062369750981   -1.72266011950878
H        -2.86863040354538    0.98635506196314    1.37757986128578
Cl        0.45866241479963    0.20463496839432   -0.35328203743921
