72
 energy: -123.994036351876 gnorm: 0.000409252692 xtb: 6.4.1 (afa7bdf)
Ir       -0.50720076519707   -0.64710758649477    1.43939888146055
C        -1.91979510899510    0.95481558262573    4.06564759022832
C        -0.69612920988883    0.39882615930295    3.42736359185969
C        -0.19396194527201   -0.93047299144538    3.62361938566465
C         1.09578444178538   -1.01767743095085    2.98306091777185
C         2.08139590468608   -2.11419432881379    3.18145620212303
C         1.35044467386894    0.22046046638602    2.32591417069057
C         0.22414436185245    1.10412242266424    2.58427282001439
C         0.19885270056571    2.54745517136507    2.30145045756802
C         0.08044860201809    3.45238937214211    3.35653675098764
C         0.09897133268105    4.81164613745963    3.11650754276739
C         0.23696163734513    5.30941672507538    1.82152194827224
C         0.26633277514596    6.75733129504983    1.56788132875743
C         1.16380322135801    7.29559163661447    0.64747919062071
C         1.19501340888970    8.65711339863373    0.40848429552137
C         0.32579073518171    9.50223565293117    1.07906140572346
C        -0.57151494723435    8.97751639388814    1.99500866334106
C        -0.59906316763843    7.61705164054815    2.24125123693628
C         0.35046100500510    4.40041761945698    0.77059843100845
C         0.33275823597191    3.04032326451908    1.00527934681438
C         2.63178256040672    0.60243548850388    1.67679585144339
C        -0.76672994770408   -1.94339417664571    4.55159613590000
H        -1.73308992966483    1.07914365694334    5.13292923191273
H        -2.76636334201788    0.27944259046856    3.96095068992353
H        -2.17459832007510    1.92448597655954    3.64738913933339
H         2.59989563094970   -1.94094140731038    4.12531208940888
H         2.82069496862695   -2.12774595729107    2.38707509765945
H         1.59724519225724   -3.08545758495648    3.24078963274676
H         0.00469656182603    3.08957781567335    4.36977956030870
H         0.02970791772539    5.49935196525363    3.94568997652625
H         1.85629111099453    6.64612916713497    0.13197785553602
H         1.90006129662316    9.06172161281534   -0.30325699078197
H         0.34788105858440   10.56527756044932    0.88879737948599
H        -1.25281345875640    9.63251954219722    2.51854062350841
H        -1.31189452144130    7.21613369756360    2.94673017140649
H         0.43677376116981    4.76469509403222   -0.24191755276167
H         0.40175548412507    2.35298176794064    0.17666855171003
H         2.95444319021769   -0.15753203531828    0.96806357641931
H         2.53665462156192    1.55248015129570    1.15990039785975
H         3.40164372216311    0.69598642510830    2.44328008038976
H        -1.84727646390472   -1.85456266813025    4.61608276272235
H        -0.50742898073249   -2.95206254090571    4.24140483049953
H        -0.35379636904320   -1.78319651154818    5.54834936976035
O         1.91780935454697   -2.31120798944376   -0.13903356133374
C         1.40188701001391   -3.43546198302770    0.34378306112298
C         2.26846343808649   -4.52649557859968    0.48759234377959
C         1.83069116496836   -5.74152513566617    0.96121628960309
C         0.48914542464552   -5.89834400974767    1.30664925727450
C        -0.01381990855566   -7.20309386918266    1.85005595634775
F        -0.07599075985574   -7.20335195182339    3.20112861762875
F        -1.26158213177530   -7.48907636056627    1.43214918388151
F         0.75231305752659   -8.24910872571772    1.51247410905532
C        -0.39126170698988   -4.83717138238883    1.18724533198053
C         0.04945601712807   -3.60008773564609    0.71689025387942
N        -0.85634608831047   -2.53260862923764    0.65289803370311
C        -2.02055062421794   -2.71015943665139    0.11288651454358
C        -2.92967753279123   -1.60430469148739    0.11782706386716
C        -4.17353127142847   -1.60716867498829   -0.51938753821183
C        -4.94591404105754   -0.46397965748886   -0.50095479547544
C        -4.44353174648846    0.65895141055552    0.15584536413196
Br       -5.43710435490738    2.27837459616995    0.22131164225884
C        -3.20265834313347    0.59782858211299    0.77859875624623
N        -2.46901874124709   -0.50581167114521    0.76651511054578
H         1.26021345981217   -1.63952579181519   -0.43593100729184
H         3.29867109516384   -4.38460467110355    0.20459793327429
H         2.51419924921427   -6.56957052160123    1.05859442997452
H        -1.42138247889574   -4.95387434935157    1.48893076219853
H        -2.28929317739770   -3.64394710070030   -0.36793190956806
H        -4.51317255706169   -2.49567007385756   -1.02761262566758
H        -5.90874921983285   -0.43197509178326   -0.98574367970716
H        -2.79999653538308    1.46178141373402    1.28661556070325
Cl       -0.02227368821648   -0.06873015033955   -0.85313207758433
