63
 energy: -99.202960710646 gnorm: 0.000897496162 xtb: 6.4.1 (afa7bdf)
Ir       -0.79134822478411   -1.54768668693105    1.52215495770338
C        -3.22710536791032   -0.03552973025637    3.43613804128809
C        -1.82742358776466   -0.51617451326127    3.27881707038858
C        -1.37048594141510   -1.83059279333290    3.66580225545280
C        -2.21474006607850   -2.86988457110078    4.31867124865223
C         0.06836004458935   -1.83514952024213    3.60383848573272
C         0.95585934245322   -2.86750963155373    4.20877861854833
C         0.48508177352631   -0.58030017273857    3.06626551541589
C         1.87839969342523   -0.06582335861446    2.97740339420142
C        -0.70149903142052    0.23809517057785    2.86441344353535
C        -0.65883741429175    1.68414776916007    2.50576330706461
H        -3.41608189342303    0.13455746969875    4.49708735874617
H        -3.94783706537826   -0.77204613981920    3.08789326731670
H        -3.39428091099484    0.90310902486044    2.91486281147985
H        -3.23172642736816   -2.84676497279968    3.93795271756813
H        -1.80458082425022   -3.86457281529704    4.17005428735502
H        -2.25144385392833   -2.67566152154293    5.39127985155737
H         0.48787798378428   -3.84790613441809    4.21281432478426
H         1.91517218898339   -2.91821698718651    3.70126360110537
H         1.14560390616983   -2.58634961962437    5.24568042203602
H         2.01453066184248    0.52821695855018    2.07681819454019
H         2.60453394991183   -0.87240873623236    2.97914833031284
H         2.07185423384922    0.57810569175308    3.83626458066563
H        -1.65031808720685    2.07659069702126    2.29934340995838
H        -0.03314642853283    1.84337450681249    1.62966394235226
H        -0.22759450968844    2.24942133616860    3.33202157536693
F        -6.14579992587984    0.03762253793691   -2.06242894723615
C        -5.08740330155283    0.39888201684834   -1.32693437032397
F        -5.56160341144345    0.84415233980060   -0.15182459608576
F        -4.54114738591292    1.46633955467916   -1.93884855940900
C        -4.09254776998447   -0.71643324314319   -1.15108003560713
C        -3.98253004536801   -1.73979441807257   -2.09729419133507
C        -3.02622530277024   -2.71202391716256   -1.89299372322908
C        -2.21263009896231   -2.64305481882637   -0.75796716517355
C        -1.16681997652795   -3.56603161335223   -0.44349896711221
N        -0.42855333053977   -3.31259125674142    0.59080667060984
C         0.62831037191455   -4.25522233854748    0.89224302888919
C         1.86666780592894   -4.04826210173543    0.00082450937907
C         2.74926281613065   -2.89211053498753    0.47986828779906
C         3.86490549672964   -2.65385597159763   -0.49995937575933
C         5.08231359255141   -3.30981096232771   -0.36969303821799
C         6.09341190571903   -3.10870517129977   -1.29367649222768
C         5.89654185869147   -2.25072412363260   -2.36295160468478
C         4.68509283370106   -1.59287113746523   -2.50144148169316
C         3.67644864866859   -1.79539372902348   -1.57628653483883
N        -2.34422794468899   -1.64781183891250    0.15659571501091
C        -3.25403630012089   -0.70410574617399   -0.04784384116779
H        -4.63009081139548   -1.75991730117048   -2.96005466251385
H        -2.89068908910441   -3.51305575959986   -2.60153164957066
H        -1.00755332020845   -4.44710999538896   -1.05528511082457
H         0.91644925224677   -4.14591160188067    1.93616384254710
H         0.24850429327733   -5.26801520763841    0.73053509697996
H         2.45022969797154   -4.96961551690833    0.00386067404935
H         1.54728964290546   -3.85402137583046   -1.02386506457516
H         3.16799174595630   -3.13748267856043    1.45685008893212
H         2.14264670297342   -1.98990843032036    0.56232565056146
H         5.24618238358365   -3.97991223589095    0.46235347856058
H         7.03808121542131   -3.62122646425000   -1.18035871434069
H         6.68558718224769   -2.09235090620636   -3.08402361640229
H         4.52926770833054   -0.91888364914687   -3.33188571112072
H         2.73568724212963   -1.27466196726799   -1.68230109437032
H        -3.32615764223586    0.08483199876652    0.68604325861873
Cl        0.23032611549489   -0.37769315465089   -0.28959876722990
