65
 energy: -101.170521503594 gnorm: 0.000156079511 xtb: 6.4.1 (afa7bdf)
Ir       -0.70316868824540   -1.19618334930470    1.50304412944031
C        -2.17652083899802    0.44184846190642    4.10760231739269
C        -0.93613693835638   -0.10007326618844    3.48650562601945
C        -0.40279785558514   -1.41050055599912    3.71313357857836
C        -0.96044840497100   -2.40425926461694    4.67500239104679
C         0.89759524364441   -1.47412359183493    3.08968830143900
C         1.92845921395028   -2.52384434378660    3.33474918854944
C         1.11595144980850   -0.25331964254589    2.39708946335202
C         2.39616311689304    0.17879489118893    1.77215923743741
C        -0.03890104662169    0.60194092752403    2.62638189429115
C        -0.07701443503082    2.04324586221292    2.32768475536556
C        -0.16981197767380    2.94850220155351    3.38382817762945
C        -0.15307068721779    4.30290664782486    3.11091415432182
F        -0.23835936962866    5.17185700383283    4.14077427043570
C        -0.05017606834497    4.80369341175812    1.82555821797448
C         0.03560756056243    3.87876792653507    0.79953689699308
F         0.13311844805812    4.33149858446078   -0.46805099060950
C         0.02400161966199    2.51524676461748    1.02181326850034
H        -2.44339002719064    1.40201641020447    3.67471427698496
H        -2.00637751520906    0.58049656519464    5.17567995771689
H        -3.01045885911153   -0.24790412470260    3.99659747836791
H        -0.69694997350787   -3.42038304556633    4.39558253457991
H        -0.55166342425164   -2.20958329974888    5.66731289331400
H        -2.04206669263137   -2.32524931310262    4.73327800444602
H         2.59976587836000   -2.17084165926838    4.11873281630693
H         1.47881351842053   -3.45213794046584    3.67477195036879
H         2.52831240168492   -2.71064447206952    2.44807715248240
H         2.94272332240198   -0.66844034703237    1.36632647513874
H         2.22293758423059    0.89890407548035    0.97773079736936
H         3.01837245181719    0.65418414328810    2.53188497957889
H        -0.23037862234165    2.61372894930318    4.40644504711006
H        -0.03543386375352    5.86325479305638    1.63242193893536
H         0.07059274257628    1.83281171965432    0.18740331235020
C         3.66967593869499   -3.05533307028157   -1.81103248693947
C         3.56022340131549   -4.16193692672676   -1.09969667384394
C         2.39407160151356   -4.57647407138196   -0.25184586362657
C         1.23961828937837   -3.57973905906277   -0.24082387454526
C         0.10993535536118   -4.05376067118594    0.68356725816815
N        -0.94201860493255   -3.06942262828412    0.73490796216640
C        -2.06326320689913   -3.31003844845889    0.15317413633549
C        -3.06052751863761   -2.27164887458863    0.18196033758931
C        -4.30312384360321   -2.36284486969172   -0.41644854412288
C        -5.18532152446726   -1.27346312838855   -0.35023483627228
O        -6.36748115097883   -1.42224514001634   -0.93162520798692
C        -7.31032497030788   -0.35907733572098   -0.89717760651336
C        -4.73897464035048   -0.12530810088785    0.32330991925774
C        -3.48242022915209   -0.11814842041399    0.89081181290427
N        -2.65765026608087   -1.16008672906106    0.84884039868611
H         2.89659464860560   -2.30812955168067   -1.85621737852827
H         4.55326900722494   -2.85011755050297   -2.39169255327522
H         4.37392951466480   -4.87711339214106   -1.09861013222768
H         2.04113877931113   -5.54548031430494   -0.61708784023155
H         2.75734943713130   -4.73914420612090    0.76740540228396
H         0.84575514991295   -3.45999022052159   -1.25027777336783
H         1.59138909343382   -2.60317300356914    0.09396027506860
H        -0.28437279466474   -5.00807916992551    0.32149563865675
H         0.50465432476693   -4.19089705195182    1.69158922193342
H        -2.26063817774945   -4.24794542239159   -0.35476472550351
H        -4.60289372966393   -3.25444953363962   -0.94204002151281
H        -6.92232429080457    0.52603439467997   -1.40539210973817
H        -7.58571140997996   -0.11318119461808    0.13041404826876
H        -8.18292982572633   -0.73095278995113   -1.42945656473377
H        -5.35286466595730    0.75543288041185    0.40611603183333
H        -3.12610702250262    0.76385542242856    1.40124124652766
Cl       -0.24666793237299   -0.50660694551535   -0.73518098992470
