74
 energy: -112.660401829501 gnorm: 0.000611621646 xtb: 6.4.1 (afa7bdf)
Ir       -0.72717545714388   -0.81107860584141    1.36534904680869
C        -1.94186219831267    1.25429370234326    3.80871882038606
C        -0.79332816605995    0.54569913879591    3.17315113371477
C        -0.39004369292017   -0.78416389953616    3.55830492243159
C        -1.01237858943502   -1.59169539770206    4.64693589539129
C         0.89113443015831   -1.05328344060816    2.95805400815206
C         1.77916288793166   -2.19140499284142    3.32503258513940
C         1.21028087828857    0.03679503173450    2.10950998256052
C         2.49114242384114    0.23484687538024    1.37347518802467
C         0.16002586595116    1.04224895118459    2.23832734370898
C         0.31457709936506    2.44114304189250    1.70621816754347
C        -0.86733471578620    2.96058670431478    0.88088185626431
C        -0.52779254835546    4.33682083499866    0.31460516339617
C        -0.20687831353871    5.31612976759186    1.44156416441440
C         0.94787172106151    4.79481055269998    2.29309355074537
C         0.62187339596672    3.41422004833047    2.85605197892659
H        -2.81617044471001    0.60989218763610    3.87012855873997
H        -2.20690100393455    2.16138533292112    3.27778546739046
H        -1.65846797211163    1.52367857390697    4.82702481388032
H        -0.79760825612998   -2.64891040006941    4.51866078024693
H        -0.59922248495204   -1.27774211846924    5.60618830771243
H        -2.08868883304974   -1.44971474447258    4.67997384581177
H         1.22094478492705   -3.11763454314389    3.43447774707808
H         2.56184246348497   -2.33739529423318    2.58678019393430
H         2.25150312958032   -1.96641649601791    4.28206132702461
H         3.02341525586687   -0.70194147962686    1.22946605456704
H         2.31205151622834    0.67286391401689    0.39384357809971
H         3.13423155300198    0.91065574736687    1.93805751702346
H         1.18138365484087    2.43892707000381    1.03864677335904
H        -1.76280366182492    3.05210835923966    1.49603461724999
H        -1.07197364360295    2.26180467979915    0.06798230791527
H        -1.36616308186228    4.71090145832995   -0.27599876588174
H         0.33381932352536    4.25508563312032   -0.35190906185473
H        -1.08943046683399    5.44985759977181    2.07143940209231
H         0.05220990525221    6.29093406281828    1.02336252460314
H         1.14751102682961    5.48721002027445    3.11362605672560
H         1.85085645997081    4.73676510791191    1.68073141695443
H        -0.23847499471558    3.49020353080474    3.52118645003426
H         1.46674164208011    3.04165265863683    3.43856491501547
O         4.08134577636618   -2.66046617168385    0.05701811101606
C         3.72456567378936   -3.81700292405192    0.01076632863785
O         4.52366038962600   -4.81009711261958   -0.35233066507815
C         2.35495503052408   -4.26319829130835    0.37953016216665
C         2.09913581253528   -5.57648707231207    0.76728361015335
C         0.82088663327530   -5.93665542586511    1.16063091693231
C        -0.20455711781600   -5.00781283060368    1.15437666079347
C         0.04707018532255   -3.69343540255286    0.75319362941633
N        -0.97351243215935   -2.73441867556666    0.73540913414462
C        -2.13321815796306   -3.03429901798225    0.23519810006726
C        -3.12717888507375   -2.01268411281036    0.24940054207245
C        -4.41053299650517   -2.14332827131293   -0.29432318241961
C        -5.27730155210640   -1.07834015466308   -0.25083289911247
C        -4.84994954554829    0.12657109547638    0.33390718297369
C        -5.70531450804134    1.27839000597996    0.42067853118172
C        -7.00715766029133    1.48258240141452    0.00802445254907
C        -7.33116777982876    2.80627927206033    0.35737619230706
C        -6.21520978169347    3.31982628359643    0.95633004559816
O        -5.23623423772061    2.41243577741164    0.99999364488082
C        -3.54824134891048    0.17866942009448    0.84962648810573
N        -2.71728273523025   -0.84966696839187    0.82175907193234
C         1.33267192309229   -3.32242435327832    0.37617892788723
H         5.41894662938167   -4.49936002240136   -0.57784100485318
H         2.90062199391144   -6.29717836104758    0.77084670427256
H         0.62270040243780   -6.94843986854384    1.47725591033180
H        -1.19346365466878   -5.28638850416476    1.48482432665511
H        -2.33006265877444   -4.00050649934499   -0.21451777949477
H        -4.69882803993070   -3.07824096801578   -0.74663063241221
H        -6.26874236320352   -1.16145107285337   -0.66376174294742
H        -7.65037458051920    0.78104522945518   -0.48074480091000
H        -8.26044683193400    3.30935206460651    0.18862761018400
H        -6.01487216500885    4.28561022732477    1.37648700281903
H        -3.18995515297179    1.09507117309995    1.29241055707833
H         1.52813421465838   -2.31326650481589    0.04581672914751
Cl       -0.34472237185577   -0.28661853757855   -0.93822850136975
