74
 energy: -98.954534279937 gnorm: 0.000522587908 xtb: 6.4.1 (afa7bdf)
Ir        0.90644408736820   -0.09774206596120    1.75659841198878
C        -1.18592685347677    1.78087167589082    3.57238014930862
C         0.11003838713872    1.05997036481020    3.44433907350008
C         0.30576967030644   -0.28252008086715    3.88685333831164
C        -0.72934408530949   -1.13551222533887    4.53779420999664
C         1.70310410389600   -0.59354178354169    3.75583781696362
C         2.36829234743456   -1.83801998629527    4.21511645627356
C         2.38731210069106    0.58477741527011    3.26733494143129
C         3.86250747524358    0.74025297572948    3.15988067491999
C         1.40865161649324    1.60931472427155    3.06462602015122
C         1.73914268881691    3.01421268283061    2.67119530433895
C         1.04614151711077    3.48104717619392    1.38222226307177
C         1.53860217960765    4.87738316624673    1.01281177790033
C         1.26078705969549    5.86139401942899    2.14704972887537
C         1.91779038780134    5.38847834194976    3.44130418551496
C         1.42672897494001    3.99315059340747    3.81700981527716
H        -2.02067765506909    1.11897415030563    3.35262635151935
H        -1.24192594010914    2.64562257082800    2.92102656948060
H        -1.29478489692520    2.11762894995948    4.60425675638088
H        -0.44696577379018   -2.18335636812578    4.52054214965128
H        -0.83554648693199   -0.82944372090906    5.57850426634396
H        -1.69601934270516   -1.02403396046641    4.05415851279439
H         1.66528672384323   -2.66261805927603    4.28739562104706
H         3.18683178096916   -2.11875967254986    3.55630969646522
H         2.78694287323111   -1.66066281483196    5.20718670441204
H         4.35848818760251   -0.22505897333083    3.14560792856112
H         4.13869074025937    1.28534122878461    2.26091128106762
H         4.22483707205696    1.30056923362953    4.02237094684585
H         2.81683654591030    3.05898929059331    2.48685693232987
H        -0.03509017845662    3.51514678265823    1.51467670201051
H         1.27094988775639    2.77955705792737    0.57503166680370
H         1.04040607412401    5.21063693760097    0.10070358832763
H         2.61171886199669    4.84724308866255    0.81140002299058
H         0.18255168608956    5.94941118659328    2.29709333035309
H         1.63977020611121    6.84915616064798    1.87941812732765
H         1.68585097774964    6.08375287166745    4.24989065810449
H         3.00248422040098    5.37626859714476    3.31433641387279
H         0.35389717605499    4.02780897721820    3.99981603091528
H         1.91941760341286    3.65708447453264    4.73040340527617
C        -4.70845930610340    3.98965914290382   -0.43122926593650
O        -3.59119348703940    3.16816077809904   -0.13513592481656
C        -3.73217011338497    1.83330153572976   -0.18094532477654
C        -4.90584529942263    1.14443552996102   -0.48902080062450
C        -4.87652803382682   -0.24501178396355   -0.48148600383960
N        -3.81169316802755   -0.96377346456958   -0.19905443201377
C        -2.68481598617403   -0.31161221988914    0.09687219704188
C        -1.52360364698284   -1.11897049375986    0.41597992267664
N        -1.39067458592019   -2.34030689441924    0.32381816025366
C        -0.23129226291388   -3.05488858302446    0.65957027485573
C         0.37911247403048   -3.68122114709536   -0.59916047146495
C         1.62535531274151   -4.48622794096799   -0.24389647680034
C         1.29963325502109   -5.56502196388132    0.78556106543468
C         0.69810740591773   -4.93366097034534    2.03755952524480
C        -0.55751009453086   -4.14203859401296    1.68629754444933
C        -2.59526659390303    1.07416014203513    0.12211675180414
H        -5.06317811170763    3.82210804066030   -1.45102824300130
H        -4.34974868883354    5.01198836146564   -0.33499695000832
H        -5.52194270817757    3.81794774613983    0.27789445740089
H        -5.82098888081261    1.65826722056576   -0.73021587228515
H        -5.76818202262251   -0.81020966033631   -0.71452161080933
H        -0.59024927601978   -0.47496302529500    0.81906171133724
H         0.53093598744634   -2.32812656792657    1.10898771851133
H         0.62938480765639   -2.89071420605172   -1.30963116100070
H        -0.36779513674439   -4.32819357867977   -1.06043814656561
H         2.02707103092970   -4.94212746192990   -1.14997444599703
H         2.38835265233032   -3.81398184000514    0.15593939159818
H         0.58989592233404   -6.27457374967078    0.35628722882632
H         2.20583637850733   -6.11492945301981    1.04423683707045
H         0.44772205407972   -5.70837727995139    2.76317837478002
H         1.43767989273592   -4.26959097560634    2.48973450774085
H        -1.30590001746776   -4.80554889441032    1.25298531275404
H        -0.98925097043493   -3.68413869057270    2.57672201330637
H        -1.66948808978454    1.57814526962453    0.35482443516692
Cl        1.87406730576480   -0.02766431098091   -0.26790213103797
