72
 energy: -107.398449937209 gnorm: 0.000755808236 xtb: 6.4.1 (afa7bdf)
Ir       -0.81678526240871   -0.89374585959283    1.68126465101502
C        -2.28593190839065    0.96289482174380    4.15882232673564
C        -1.06796289228776    0.34623304490499    3.55794375478705
C        -0.62924112320712   -0.98503824659000    3.89439113232740
C        -1.28873826835516   -1.87985328850913    4.88817753336516
C         0.69610085461407   -1.16693101731855    3.36335918034271
C         1.60198783115972   -2.29554173770633    3.71587741933483
C         1.01843238655796   -0.01600999136830    2.59911856500415
C         2.33250879412139    0.27848295182313    1.95777371021760
C        -0.08204610522940    0.93628095702449    2.71446148204885
C         0.03521340276104    2.36679732619244    2.26016171714694
C        -1.13344154573272    2.87086704920236    1.40663727443994
C        -0.85067900730308    4.29388905599507    0.93251355404580
C        -0.63454517033008    5.22252011446653    2.12514788247751
C         0.51310149025923    4.71679920390862    2.99539856368607
C         0.24210353406948    3.29184234143224    3.47045758628878
H        -3.13600960397685    0.28604896091991    4.10443029893469
H        -2.54741526484232    1.90102486384251    3.68319755920657
H        -2.08678734892144    1.15756645825500    5.21349453853040
H        -1.00414350406919   -2.91624340729157    4.73012538105262
H        -0.97492025871894   -1.59270700510946    5.89252811597383
H        -2.37060171362276   -1.79832564033272    4.83654847017632
H         1.06249383067108   -3.23765227817456    3.77338758639472
H         2.40900712201451   -2.40012134585706    2.99729490689652
H         2.03975870021097   -2.09472187499436    4.69441877879467
H         2.94418792603599   -0.61630748886994    1.88630057964679
H         2.19316008395033    0.68090040265720    0.95611488849240
H         2.87228341277051    1.01722839254172    2.55046737222189
H         0.92977159570887    2.43648603617761    1.63430444520964
H        -2.05872795146351    2.87870711607789    1.98266936470638
H        -1.26048250708468    2.20910213351076    0.54832594352176
H        -1.68564383434242    4.65360732509398    0.32792574427073
H         0.04077239560373    4.29943385166760    0.30143623958377
H        -1.54893648237308    5.27039498081457    2.72127322827436
H        -0.41554687666106    6.23280286255433    1.77373784647835
H         0.64314134950529    5.37240640166238    3.85898531182217
H         1.44036860888045    4.74050040378248    2.41813267125179
H        -0.64697892258783    3.28546216368614    4.10121151254228
H         1.08193896258597    2.93401583607605    4.06914112919562
C         1.93539693822020   -7.98601611485090    2.05626324005760
O         0.88101425498091   -7.04248683330166    1.98539917214008
C         1.13002815294429   -5.81706601172457    1.49094230683969
C         2.37393135361003   -5.37558229601946    1.04115275120132
C         2.48314537962595   -4.08075201555883    0.56401824849064
F         3.69364060881742   -3.66093394995940    0.13620166523607
C         1.42658714112616   -3.19602533366712    0.52390983770256
C         0.18478465724245   -3.65250394458724    0.96581932004638
N        -0.90898295113517   -2.77498253783877    0.93089040800425
C        -2.01754870041197   -3.14242960366212    0.37659445772459
C        -3.08406542277782   -2.18086711906676    0.37397660165074
C        -4.30658243247533   -2.37454262181774   -0.24577090592059
C        -5.26411478522825   -1.35041243626527   -0.22765937287925
O        -6.41769764006211   -1.59335536662887   -0.83559259906144
C        -7.43085867776955   -0.59576701293267   -0.84729884229579
C        -4.91720057047672   -0.15962756812814    0.43082250202539
C        -3.67693380478669   -0.04917852664301    1.02233614775281
N        -2.77244961851663   -1.02441453124345    1.01717913784963
C         0.03521844117375   -4.94720353380257    1.44087339175949
H         2.33524591169449   -8.20808212754625    1.06368354232785
H         1.49101570888240   -8.88485285289112    2.47837688905903
H         2.73796388290430   -7.63439395669796    2.70948735107848
H         3.24936985893860   -6.00261830281080    1.04945780549632
H         1.54280402602383   -2.20002658430447    0.12994943074368
H        -2.12815693548856   -4.10858778419361   -0.10148769515228
H        -4.52836631891106   -3.29754758757027   -0.75503949804563
H        -7.74926629959720   -0.34956583064232    0.16771511193808
H        -7.08950492128587    0.30326365380204   -1.36442370689315
H        -8.26227540752784   -1.03600678488450   -1.39304861631745
H        -5.59575771367293    0.67487469113353    0.48309816667620
H        -3.39672750907159    0.86514103414274    1.52226565155342
H        -0.91692947416452   -5.29878050631220    1.80365535758057
Cl       -0.33558486235889   -0.19394157784690   -0.55386050481122
