71
 energy: -109.801820141261 gnorm: 0.000725976965 xtb: 6.4.1 (afa7bdf)
Ir       -0.70465976360808   -0.76738872516097    1.59452173450974
C        -1.93406860117158    1.19407081650613    4.23317246530106
C        -0.80568047366082    0.54051356088205    3.51479972802964
C        -0.46935986391284   -0.84392594915236    3.79492097158887
C        -1.16366950312064   -1.69817334892571    4.80126324348528
C         0.80775610958138   -1.12007027929656    3.21737206570990
C         1.67362667341279   -2.28577354271093    3.54446663222834
C         1.17237582762022    0.02022381201794    2.43117373325503
C         2.49422497757437    0.21498151328250    1.76970469173307
C         0.19759256369938    1.08276965439285    2.66968959885958
C         0.52245047508110    2.50883035723857    2.29518558268193
C         0.23210852557247    2.85506043097985    0.82745175351683
C         0.83460330513474    4.21387172864165    0.48336104200687
C         0.27549251261004    5.30025525663422    1.39793687564597
C         0.50803665109530    4.93802144798558    2.86213060209121
C        -0.12086198035003    3.58186245659342    3.17686144582608
H        -2.80815380915768    0.54713879179200    4.24587461512734
H        -2.21370623335733    2.14676613106806    3.80609580300680
H        -1.62897234030302    1.35112927464066    5.26872028971135
H        -0.92330921848220   -2.74749497468656    4.65519274768447
H        -0.83807549009893   -1.41098605310837    5.80158946044864
H        -2.24176470187702   -1.57438081501392    4.75255355523251
H         1.09137542517508   -3.18713940200858    3.71517430898635
H         2.40282060940438   -2.48081082164256    2.76416551278594
H         2.21364287175654   -2.05459882008027    4.46376647757663
H         2.96316750992000   -0.73890150894789    1.54747299772267
H         2.39272392643097    0.77992994594162    0.84718096297383
H         3.15105193189332    0.77083856672520    2.44005977267053
H         1.60899063100970    2.59478520783268    2.42992436195587
H        -0.84589036072028    2.88924386954939    0.67147852335245
H         0.63931852980385    2.09286701090793    0.16470152294200
H         0.61560717415699    4.45695487593805   -0.55838274403627
H         1.92143832522293    4.17233864547327    0.59206633426210
H        -0.79683809132834    5.40611425417011    1.21849628130679
H         0.74774121955363    6.25818901878262    1.17049249187602
H         0.07013808978107    5.70294754185939    3.50625067772760
H         1.58112100900708    4.90716040104807    3.06585415996213
H        -1.18746500905218    3.64991381105798    2.96404427032433
H         0.02220279966623    3.34390210849300    4.23138230973313
C        -7.14484625656016    0.41603405101997   -0.32058845057540
O        -5.82936973660670    0.61098306743520    0.17886054820463
C        -5.00236056719748   -0.42290190570913    0.27989818829080
C        -5.27184214375516   -1.74916604309170   -0.06921347080109
C        -4.26938652108400   -2.68646409235105    0.06984803299375
C        -3.02647652127177   -2.30939610387292    0.57813092871082
C        -1.89440047766669   -3.17881771887217    0.60742187498806
N        -0.74931892495091   -2.68017414309168    0.94272836342147
C         0.39616704552974   -3.48795551867560    0.87297150038556
C         1.53001478713793   -3.00786181731597    0.21562574255032
C         2.65653133671492   -3.80459010144677    0.11485604104021
C         2.67699047321611   -5.07083588654175    0.67769225889646
C         1.54981249284272   -5.54725547780863    1.34290787858295
C         1.51715175449038   -6.89856385579230    1.96513131916549
O         0.54694054605806   -7.34883194013559    2.53344506688361
O         2.65711352823694   -7.56541730967852    1.83716836693529
C         0.40700325725429   -4.75980297240275    1.43451672157942
N        -2.77480274963968   -1.03418235883787    0.97922523954926
C        -3.72193476446030   -0.13453958472512    0.80006088578823
Br       -3.39312501180417    1.65779888772539    1.21904038122031
H        -7.70975466149703   -0.26215711746286    0.32235391768419
H        -7.12268053691649    0.03571892718552   -1.34401848644304
H        -7.60363676810262    1.40209163942831   -0.30646857466684
H        -6.23412504924071   -2.03287561661477   -0.46268531543398
H        -4.43213867447319   -3.70974747757581   -0.22683754308819
H        -1.98792542093467   -4.20437348282194    0.26798588292077
H         1.49491149633272   -2.02709934794524   -0.23347867830720
H         3.52534851706503   -3.43598169080485   -0.40773098464178
H         3.55524802638659   -5.69132123846577    0.60634853604925
H         2.61272706601143   -8.44611460926228    2.25046233414443
H        -0.45031310372123   -5.14652753377235    1.96495530154064
Cl       -0.46849067142784   -0.16950187740348   -0.71402666736955
