81
 energy: -129.152043685090 gnorm: 0.000344534782 xtb: 6.4.1 (afa7bdf)
Ir       -0.96317328275816   -1.17595008979699    2.05272312436319
C        -2.29485502133181    1.38303009598648    3.63910578449004
C        -1.16581104280062    0.39843760121726    3.62639102976731
C        -1.16150805677689   -0.88031559175413    4.20562217603149
C         0.28913120540831   -1.21592364661199    4.57291183172457
C         0.55319692577350   -1.82584889530536    5.92618002553467
C         1.05491976235962    0.04691045174794    4.24242040480454
C         0.22666936464127    0.92900151384992    3.65120201590487
C         0.55132347015701    2.27137307574308    3.16524283536613
C         1.18419391170802    3.19129959497799    3.99691019295104
C         1.44897726025962    4.47104924310493    3.55157596940654
C         1.10832021066325    4.86160873572700    2.25781357927709
C         1.38620693340974    6.22798759528538    1.78960778298912
C         1.91772434785584    6.45260008426343    0.52171034235772
C         2.18729484900150    7.73826610765401    0.08957719727517
C         1.91984988745994    8.82030487044535    0.91235448449167
C         1.38340625242172    8.60850363711540    2.17212828800625
C         1.12221434544869    7.32301645233590    2.60958788863307
C         0.49542160272595    3.93091009210919    1.42089349293936
C         0.20977121001589    2.65818528856267    1.87193162308495
C         2.51762330028066    0.14978694692012    4.47302820939776
C        -2.29408966072387   -1.54929413289741    4.93066370889144
H        -2.14972963986360    2.03524171938966    4.50085158209223
H        -3.26107866629734    0.90055433106092    3.73820154852383
H        -2.29065731411636    2.01676114945865    2.75600650776899
H         0.27271548855076   -1.10914955984312    6.69510142524105
H         1.60955578024079   -2.05621769375765    6.03593614885113
H        -0.02137945208778   -2.73705145173724    6.06332438822904
H         1.44667815791068    2.90560280911334    5.00383212908407
H         1.93998453026766    5.17524978380264    4.20685593443774
H         2.14307630421267    5.61338311318071   -0.12016009879621
H         2.60862930272273    7.89838708608789   -0.89251736183152
H         2.12859288147818    9.82451387714904    0.57340157588689
H         1.16838110494669    9.44947767113705    2.81558990693986
H         0.69239171005566    7.16661702718720    3.58844458485628
H         0.22125380569060    4.22142860713396    0.41778056584399
H        -0.26813896046785    1.95019410541384    1.21049580374361
H         3.01901514246574   -0.76437122216750    4.15723575762501
H         2.93128255318885    0.99180142983077    3.92454086300624
H         2.72664087219442    0.29265500872291    5.53338069244727
H        -3.25342174336957   -1.21715384178934    4.54703987729846
H        -2.23064036040955   -2.63178501842377    4.84898348298066
H        -2.24616014987004   -1.28627524097999    5.98705195875395
C        -4.20540213472854   -2.24710527756572    1.97784428023797
S        -4.70362197308116   -0.49391692697120    2.02067570863769
C        -3.55922504809427    0.23742157284103    0.92110524295194
N        -2.32835482485038   -0.26773980094344    0.78933458858930
C        -1.57987883675526    0.09135826182764   -0.30652461677416
C        -0.47870430302301   -0.77423603251781   -0.55883108781092
N        -0.27431941677536   -1.73676514409629    0.31067134535994
C         0.65441775655254   -2.75093325375782    0.06258810205237
C         0.33904416322158   -4.04456076194903    0.50542514557458
C         1.21019004683732   -5.08380696921143    0.29181746409928
C         2.43527617567052   -4.87638857089031   -0.35844638620303
C         3.40256883610610   -5.91978307430330   -0.61398552772770
C         3.12719126087487   -7.31903398322352   -0.18226093197977
C         4.54867679425523   -5.58241186960658   -1.25138812290902
C         4.84802532264989   -4.23387976594059   -1.67875770233884
O         5.85890913702018   -3.88495489333488   -2.24997612099446
O         3.90935563183009   -3.27553061766560   -1.41188913988470
C         2.74722828520082   -3.57405406640188   -0.78639172982208
C         1.86277245037134   -2.51865956761703   -0.58060514054483
C        -1.95767789886888    1.15776809436184   -1.12528469752028
C        -3.13114039407381    1.82998912408942   -0.85401275264495
C        -3.97525895636298    1.33829449214393    0.14779985999782
C        -5.24543319567032    1.91956722918184    0.34987008402324
N        -6.27015192764002    2.41457877578725    0.49330365354039
H        -4.46453346391536   -2.65450993469901    1.00626570194311
H        -3.13568406201395   -2.34699633324330    2.17414978222921
H        -4.78206141438856   -2.73407130338172    2.75646759813783
H         0.07565197689861   -0.70374555316216   -1.48585598995249
H        -0.60779711500870   -4.21330949540527    0.99559639524109
H         0.95058426713408   -6.07299042517119    0.62966306735559
H         2.22262531084624   -7.69035855887307   -0.66058558529795
H         3.95564629888968   -7.96798674796153   -0.44978640093404
H         2.98348471137403   -7.36027603880872    0.89587613985596
H         5.31095798382724   -6.31137479369879   -1.47594638179722
H         2.15938876648580   -1.53342321560452   -0.90229503665136
H        -1.32646911534302    1.44907612768988   -1.94801142908166
H        -3.43663774350122    2.68435442586707   -1.43717741468004
Cl        0.74839852253459   -2.38870484847284    3.24342477529667
