76
 energy: -104.590303616599 gnorm: 0.000266442356 xtb: 6.4.1 (afa7bdf)
Ir       -0.41927019196708   -1.04740957100234    1.61176859934623
C        -2.30731751535733    0.59938868666072    3.95301434803774
C        -1.01929115168920   -0.02821022459426    3.54669034730085
C        -0.61745039098719   -1.38034791839063    3.81709195904577
C         0.78444330860442   -1.49790051052830    3.49251949556389
C         1.67313946693230   -2.62920034840105    3.88632889672150
C         1.21276501987939   -0.26165421891683    2.93938898698621
C         0.08250052948772    0.64857647395390    2.94861141691910
C         0.16857814435467    2.10366752876420    2.71061710595677
C         0.73828776105532    2.90743752773558    3.69507299170242
C         0.81864814686056    4.27452995667194    3.51968064921277
C         0.34234964117868    4.87406935253791    2.35502627228859
C         0.44150752333585    6.32957915732225    2.16472184232916
C         0.83983521131623    6.85768050782964    0.93855318828251
C         0.94376351899707    8.22518727310518    0.76191673475509
C         0.64333814300044    9.08720376488756    1.80406456608105
C         0.24075716148648    8.57268651529816    3.02573256734309
C         0.14441993103172    7.20513595581431    3.20678979780664
C        -0.22006571962343    4.06332266534738    1.37186169321162
C        -0.31050477065333    2.69616641236580    1.54869939069030
C         2.60623835490292    0.13248902651913    2.59309281174668
C        -1.41991926197757   -2.37229709933148    4.58962203399257
H        -2.33030173158836    0.67532751474060    5.04059743391929
H        -3.16558790614861    0.00534377412491    3.64612488362620
H        -2.38930351246660    1.60282412721638    3.54218674642628
H         2.14905348221259   -2.38084572097744    4.83595946870444
H         2.46052159063355   -2.79265203679509    3.15541476911994
H         1.11094111388956   -3.54793960913894    4.02681762472493
H         1.11435053983865    2.45744229680829    4.60201713446236
H         1.27573546424719    4.88536462961673    4.28407526592184
H         1.09049887860698    6.19173839409818    0.12561102808459
H         1.26314434337302    8.62112926024947   -0.19133875662550
H         0.72276478605054   10.15544447692995    1.66458933919006
H         0.00048613028021    9.24093579854737    3.84006023935675
H        -0.18331610583817    6.81252357967708    4.15837192143620
H        -0.60252917033914    4.51095807265076    0.46671298304463
H        -0.72657325122221    2.07875863773309    0.76710255673956
H         3.22038515125107   -0.73470719721356    2.36677011347754
H         2.61172847428750    0.80640780282301    1.73905034911304
H         3.05190331437596    0.65778608142677    3.43850475301460
H        -2.48383937062951   -2.21007219846606    4.44328449835275
H        -1.17703492250505   -3.39179049707629    4.30254334926717
H        -1.20184072147695   -2.25969340285971    5.65250722732124
C         6.76783384420924   -4.36759645601753   -0.51434607387303
C         5.44769719221281   -4.86738858243987    0.06213266653250
C         4.30615212194160   -3.88536752943461   -0.19593101448053
C         2.98124223306792   -4.38262286378578    0.37988442292951
C         1.86335704435420   -3.36613642779916    0.16397129914834
C         0.53569731035363   -3.85810716917429    0.75705639319561
N        -0.47728080571113   -2.84044515395534    0.64194112391196
C        -1.40578451908190   -2.97316775285690   -0.24084585602374
C        -2.36796305813035   -1.91215757989962   -0.34889129097173
C        -3.40738243065546   -1.87615417654077   -1.27758957716207
C        -4.25467743521520   -0.78387265898129   -1.29424404855928
C        -4.03982947622528    0.24030971373886   -0.37837037512142
C        -2.98860660783732    0.13844599257128    0.51580580772507
N        -2.16914254576872   -0.90931325513956    0.54048746016014
H         7.56703309931577   -5.07657065173970   -0.30967539783347
H         7.04014162576470   -3.40926816186890   -0.07666049290528
H         6.69170117391147   -4.24061256876710   -1.59231507506036
H         5.20319140586679   -5.83407804845700   -0.38394211837890
H         5.56022998017298   -5.01932230317766    1.13820331848453
H         4.20069436680331   -3.73138770743928   -1.27182629457654
H         4.55817317202231   -2.91966106121761    0.24796093585599
H         3.10574475746173   -4.57666914364546    1.44735761517002
H         2.71640256418867   -5.32818296120140   -0.09718613814177
H         1.73009453086144   -3.18287383835715   -0.90295211874385
H         2.13089621608486   -2.41313475457450    0.62316124400490
H         0.67969931326260   -4.08747814057970    1.81392981798900
H         0.21954612094950   -4.76690741321174    0.23590638727719
H        -1.46828297335986   -3.84283577550174   -0.88636999775628
H        -3.52739318600902   -2.69129862983072   -1.97265007548406
H        -5.06361165538545   -0.72570179641775   -2.00516932970525
H        -4.67623061967947    1.10981189641866   -0.35508554519132
H        -2.80092689657114    0.92282790284933    1.23347180877444
Cl        0.53940569979918   -0.16968864134821   -0.39124310515975
