69
 energy: -106.815859120611 gnorm: 0.000640799950 xtb: 6.4.1 (afa7bdf)
Ir       -0.40322357297911   -1.01173696427939    1.53931699123396
C        -1.81831176944572    1.28164415874599    3.83388689330516
C        -0.65643688021732    0.59932909798749    3.20443676394490
C        -0.08591441585292   -0.62814956079264    3.71686952310684
C        -0.59133528600806   -1.35406848936141    4.91750178979007
C         1.19997118947270   -0.80732345172519    3.10770152855679
C         2.25919078303750   -1.73817557109352    3.58415528843988
C         1.34194095561682    0.19774746914249    2.09884325527757
C         2.57038238831686    0.49062192880067    1.30957313966234
C         0.19048442532246    1.08408227840761    2.18104851552723
C         0.08867015813095    2.37992913308644    1.45223248393982
H        -1.52651898166306    1.58822781089082    4.83923414050065
H        -2.67428609633781    0.61784145946107    3.92813447193902
H        -2.11702412225100    2.16238065792346    3.27593242391562
H        -1.67762078352045   -1.37096758290927    4.93593920701569
H        -0.21948150848257   -2.37434912576421    4.94768441988484
H        -0.24737708610511   -0.84114464358304    5.81649470287251
H         1.83931850262412   -2.65904125529123    3.97925402006730
H         2.96278611088729   -1.98404428364582    2.79456860900828
H         2.80799469908606   -1.24433792706318    4.38704652239312
H         2.31254922605115    0.84736171702331    0.31560696417241
H         3.19890614682722   -0.38994609980386    1.21677156552262
H         3.13963817327874    1.27262619673389    1.81218422502623
H        -0.89589932332847    2.82222701054602    1.56580560975276
H         0.28102887999064    2.23724735544249    0.39134220926699
H         0.83490889647017    3.07270531723963    1.84028671636543
C         4.41383115945153   -9.73227856913791    6.58559135128066
O         3.24274745348111   -9.59308008150561    5.80853790704648
C         3.14279654706105   -8.53836414840338    4.95702013250544
C         1.95519059459669   -8.45477346597893    4.22447818754277
C         1.74735853552071   -7.41774711297225    3.34361713742563
C         2.71929258621200   -6.43423936247877    3.15073225976771
C         2.49808121839796   -5.32109243669382    2.21731660159781
C         3.53133403052151   -4.84214782365352    1.41044030587566
C         3.32353164158653   -3.77572505776666    0.55211086098349
C         2.09206905797668   -3.14903850628305    0.49399337421054
C         1.04861274058065   -3.62725920008870    1.28517093644314
N        -0.20045791813281   -2.99116205109673    1.22144033206501
C        -1.27057354220417   -3.68855240896026    1.01412631044352
C        -2.50308660597314   -2.98183405959158    0.86547135122948
C        -3.69858501830259   -3.57946735245593    0.46799267137209
C        -4.80545624753314   -2.79961617498008    0.20447143581688
C        -4.68996148898895   -1.41047564315278    0.31002464937604
O        -5.63710287041970   -0.51192564566461    0.05856823598906
C        -6.92737929483802   -0.94417613622038   -0.34902680732708
C        -3.44719038359476   -0.89103385369638    0.72893163120199
Br       -3.31504569310076    0.97768369048675    0.80576356442539
N        -2.40108081895219   -1.63515525565717    1.03647527239558
C         1.24847238373093   -4.71345637261034    2.13184193890871
C         3.90290738085517   -6.53035096580402    3.87596240383485
C         4.11692489643234   -7.56118560314980    4.77274737444491
H         5.29845288809417   -9.86189167205364    5.95497626071537
H         4.26261868002870  -10.62926109633065    7.18328440065019
H         4.55635785863231   -8.87373618529201    7.24863621285942
H         1.21165958716562   -9.22287200119120    4.36748217241191
H         0.82982778344305   -7.38549586845367    2.77626501062148
H         4.49759464391329   -5.32018576822167    1.44599361662455
H         4.12985890593123   -3.42666500239190   -0.07454124791422
H         1.91140816195159   -2.31920199550942   -0.17089605751700
H        -1.23032005096098   -4.76205205527529    0.87010355409978
H        -3.74415471231398   -4.65012096076601    0.35389730763776
H        -5.73241505992051   -3.25450046841942   -0.10356092778745
H        -7.50857234151762   -0.03266318605102   -0.46788063793215
H        -7.38605921373699   -1.57671784895866    0.41335074166635
H        -6.87877982384033   -1.47548518134194   -1.30173812086502
H         0.43965505341625   -5.05291322911955    2.76078049483292
H         4.66546598377219   -5.77467434289206    3.76147925196439
H         5.04403079377707   -7.59307534728248    5.32251475203531
Cl       -0.26898419113237   -0.61868782909382   -0.81776818351087
