71
 energy: -103.944661838843 gnorm: 0.000844467540 xtb: 6.4.1 (afa7bdf)
Ir       -0.00562299285273   -0.68869646701312    1.81331630802887
C        -1.73205997562600    0.62554171169170    4.37976123728934
C        -0.41708245412793    0.19930327693366    3.82482848895256
C         0.18818621358683   -1.08092922579058    4.01354548248550
C         1.49948062164507   -1.04557765542313    3.41152078539473
C         2.57167467437073   -2.07116323540612    3.57909114262682
C         1.71921671186036    0.28026766290294    2.90796201055264
C         0.51774398021160    1.03585090823494    3.11026372434535
C         0.38109761993909    2.47695767185511    2.85885749380805
C         0.04599811883046    3.34297122592023    3.89835705926154
C        -0.02943788115583    4.70341075984249    3.67628532278630
C         0.22181388045016    5.23968132550482    2.41384500545442
C         0.16092484018458    6.69203508695136    2.19144331098966
C         1.10926773563802    7.32578514600341    1.39094185073502
C         1.06653185979211    8.69443833494026    1.19835591262542
C         0.07180956677147    9.45166691460651    1.79497790060949
C        -0.88056209118316    8.83115152664140    2.58692596945424
C        -0.83489279629417    7.46372042579067    2.78721045296827
C         0.54713896878077    4.36773256633520    1.37562371944252
C         0.62890514878751    3.00690065172724    1.59291745071843
C         3.00980039319045    0.79941816222074    2.38509994941148
C        -0.36272757089683   -2.17658779659649    4.85922118824610
H        -1.63043545633292    0.80067727792317    5.45137609830834
H        -2.48642564146991   -0.14613366369301    4.24344820876080
H        -2.07380373122368    1.54526403052053    3.91281356655618
H         3.17963289473838   -1.80991769778219    4.44591233893176
H         3.22136793303560   -2.10098949602181    2.70871407449596
H         2.15601936365333   -3.05970843009542    3.74672990010094
H        -0.12067566403895    2.95301672512331    4.89035570488465
H        -0.26102478291153    5.36403832806656    4.49804673914437
H         1.89859658391946    6.74696292772016    0.93444953801169
H         1.81345407348825    9.17402153204777    0.58242315935491
H         0.03900583570615   10.52066957913302    1.64323074283245
H        -1.66115348614486    9.41647955670393    3.05117270163670
H        -1.59016081098665    6.98813043729263    3.39585349273867
H         0.72589265724005    4.75990972651993    0.38582628478110
H         0.87458263695434    2.34320055517024    0.77658462121929
H         3.21769324610408    0.40081546228163    1.39234260947603
H         2.98308679937417    1.88417413482480    2.31636602272731
H         3.82127557473259    0.49586383699248    3.04436528309067
H        -1.44823872218516   -2.19720793397232    4.82105363179796
H         0.02174167065369   -3.14746866946451    4.56028789194728
H        -0.06450415567312   -2.00389496863418    5.89402018921572
C         4.76588038357863   -4.82175315989567    0.25954731108101
C         3.52833527086699   -4.86798577504308   -0.19733628906400
C         2.30413647669978   -4.90678193480271    0.66530597371995
C         1.42498483365500   -3.68334766380751    0.39435580077996
C         0.13614345162668   -3.71600051677963    1.22916784056402
N        -0.59523541975999   -2.48726576657660    1.05428191506209
C        -1.60810285550892   -2.46085005288717    0.25708673738270
C        -2.26408205091898   -1.20011937112203    0.05345712528023
C        -3.33804150614752   -0.99485843760295   -0.81577702644904
C        -3.86410825568883    0.27348549709960   -0.95165367320482
C        -3.28754908494332    1.30641769120742   -0.21373820596201
Br       -3.94887725887873    3.08490192941019   -0.34743207067313
C        -2.22385873603808    1.03983667683914    0.63749555142764
N        -1.73137975712456   -0.18326519325820    0.77370035042067
H         5.61644900947973   -4.79458815074679   -0.40029642768061
H         4.98408902172073   -4.81900506433937    1.31528109296598
H         3.34290785521787   -4.86822486361896   -1.26359239710146
H         1.74004990287000   -5.81549119171171    0.43941845895372
H         2.59668022395834   -4.93644217907204    1.71549779329474
H         1.16237048390274   -3.64410429399047   -0.66368417022241
H         1.98058419063292   -2.77468165826778    0.62726930297408
H         0.39552271627637   -3.81927987363513    2.28370829182902
H        -0.47637763126558   -4.57000793469826    0.92496450567794
H        -1.95871633876952   -3.34880003828574   -0.25832273729919
H        -3.74011510399088   -1.82293560972077   -1.37723969418388
H        -4.69360321629063    0.46843819660679   -1.61287624106581
H        -1.76254332222126    1.83480637439530    1.20666630148164
Cl        1.02823632650282   -0.28492286404939   -0.29281398606897
