54
 energy: -80.621850917359 gnorm: 0.000941292069 xtb: 6.4.1 (afa7bdf)
Ir       -0.68194001267270   -1.50288494907179    1.08614420887702
C        -2.07720537677968    0.78205332513827    3.24871544628786
C        -0.92260140623144   -0.06057709204257    2.82617525332351
C        -0.66482668591599   -1.40366636605018    3.30646857043137
C        -1.48836060566531   -2.12504036977403    4.31811695787145
C         0.65974783289951   -1.77438330936712    2.89337381849730
C         1.41172158652640   -2.96626137927250    3.37339478476044
C         1.16009911395080   -0.73453140958747    2.05311453927060
C         2.54978977349967   -0.59820357436394    1.53183181942021
C         0.18409005039645    0.34565179326590    2.04523080350541
C         0.43999219934196    1.69177464640788    1.46062943084722
H        -1.84607249222370    1.22921367478838    4.21642288251709
H        -2.98204985464921    0.19088059418139    3.36482608073127
H        -2.26179668892345    1.59030434687756    2.54578836196361
H        -2.54656279255575   -1.91478488286019    4.19087943452607
H        -1.33197277515022   -3.19833183392338    4.25832895190735
H        -1.19609667146673   -1.79555570630042    5.31578789581996
H         0.75106775258803   -3.81141553010402    3.54565520408775
H         2.18035414720720   -3.26311415049376    2.66610096395841
H         1.89435071671592   -2.71474481637476    4.31821024355424
H         2.54560042377897   -0.16300097130559    0.53503760744005
H         3.05693588289230   -1.55754183684405    1.49981163833026
H         3.11109892958612    0.06932600551100    2.18628757842995
H        -0.44657868601640    2.31775330987726    1.49425297599305
H         0.76560580044316    1.60543372282223    0.42562823344870
H         1.23473067345332    2.18221342635558    2.02273336484366
C         3.88616102932937   -6.73314036028382    0.62212026746072
C         2.68161002118260   -5.85225718207488    0.56316505496451
C         2.77090952939442   -4.55277935690145    0.06765993673380
C         1.66194681931789   -3.73388090633838    0.00992003095348
C         0.42020576966533   -4.21499803751767    0.42697841973225
N        -0.69819568014696   -3.37798351367040    0.35847088889500
C        -1.80012213251194   -3.80340749224850   -0.18071046675921
C        -2.89321979814476   -2.88350407081386   -0.22263835315174
C        -4.10716236984525   -3.11437905439138   -0.87789199236064
C        -5.05979986659324   -2.11849287758514   -0.90942939872409
C        -4.76217566191320   -0.90627168436746   -0.28661057738291
Br       -6.01167469320292    0.52983929419135   -0.29710181750056
C        -3.54493709978634   -0.73975342421473    0.35722791136740
N        -2.63604347107307   -1.70424196175271    0.39925197828474
C         0.31373283998141   -5.52056112170939    0.90935945175694
C         1.43767008689573   -6.31791978010821    0.98450622144661
H         3.96577369497713   -7.30587426143037   -0.30238487892946
H         3.81456400507559   -7.43867556770341    1.44592020913466
H         4.79508896416384   -6.14692865579398    0.72976609788896
H         3.72392437334481   -4.18108107168695   -0.27757178034968
H         1.72594115680122   -2.73491660161540   -0.39320436905143
H        -1.87289462753199   -4.78889536548371   -0.62502312584143
H        -4.28018280345132   -4.06126633768686   -1.36335283467318
H        -6.00564161340734   -2.26201211343006   -1.40726182817607
H        -3.30565000642050    0.19359714344502    0.84323493973830
H        -0.64004319511792   -5.88586862235604    1.25656846332693
H         1.35135256750138   -7.32011654336677    1.37543651778075
Cl       -0.24111667352621   -0.72513814061715   -1.12852701721509
