76
 energy: -131.230900495540 gnorm: 0.000309913507 xtb: 6.4.1 (afa7bdf)
Ir       -0.55787468493399   -0.86506383550408    1.62669466517038
C        -1.80415974019337    0.70930512297374    4.43693253462330
C        -0.65173671935433    0.16245757327322    3.67419970678605
C        -0.18103236644557   -1.18943035918723    3.79247432233984
C         1.07479135331092   -1.28305289214053    3.09715981579220
C         2.06461274227672   -2.38436717642565    3.23336055047250
C         1.32140125783340   -0.02751592094805    2.45775689076449
C         0.24551923678370    0.87730098495022    2.81823193678610
C         0.27361545735531    2.32736644938562    2.59076787078704
C         0.19620800860102    3.19838096039555    3.67687829997986
C         0.28386922598759    4.56253632783605    3.48685348249991
C         0.45253340574941    5.09956056736894    2.21176057901167
C         0.55768010281806    6.55328041202280    2.01714022307591
C         1.49688220567110    7.08603648744536    1.13624660278646
C         1.60486456604895    8.45420742087732    0.96587135110604
C         0.77067176465036    9.31171903246113    1.66468195900408
C        -0.17142837334612    8.79235452292885    2.53784136302280
C        -0.27464375282179    7.42505744712271    2.71651502190930
C         0.52676538828350    4.22509029663651    1.12884154885365
C         0.43863955220918    2.86072661660169    1.31375842902854
C         2.59292021949937    0.34312242765578    1.78140238362539
C        -0.73677699101203   -2.21418598749833    4.72040820831629
H        -1.54947891085777    0.70370244582214    5.49764309345406
H        -2.69044079295290    0.09031969246806    4.31448497162280
H        -2.03231887120901    1.72603265394776    4.13450693817686
H         2.65346458058079   -2.19684002981636    4.13244824315356
H         2.74524908262203   -2.41342427037635    2.38829289195774
H         1.58517700085350   -3.35305203319581    3.34475870664645
H         0.10345341425848    2.80506028467894    4.67698822045791
H         0.24668253170140    5.22206944776557    4.34068721864016
H         2.16102753536712    6.42557401133022    0.59800518245678
H         2.34332563640204    8.85493796616734    0.28636634882861
H         0.85438192347778   10.38010081574223    1.52902758660805
H        -0.82711099421556    9.45698630095318    3.08154170606683
H        -1.02135598180510    7.02622507698388    3.38740743378299
H         0.63709665866947    4.62204903286203    0.13090915356657
H         0.46890427260024    2.20201233608724    0.45967119524660
H         2.85427949045463   -0.37808618965140    1.00961979969407
H         2.52246629537563    1.32987950213339    1.33438957223983
H         3.39377494887634    0.35036793578061    2.52145807582446
H        -1.81648659324011   -2.12771231724738    4.80216721638388
H        -0.48198304873700   -3.21907497895924    4.39464384392730
H        -0.30979777445849   -2.06437481962916    5.71270374534469
C        -6.85168763598764    1.07452374490376   -0.11908697093040
O        -5.50993002335987    1.10832945786858    0.34976110695624
C        -4.79040365679319   -0.00363350859766    0.36727127158451
C        -5.20071680048178   -1.27137950248861   -0.05549342425607
C        -4.30103864023412   -2.31498981149777    0.00737073081777
C        -3.02080341000064   -2.10242881113810    0.51773298700069
C        -2.00581736270043   -3.10609735069509    0.51154567966959
N        -0.80790288563230   -2.78528938024825    0.87922281400582
C         0.18722151736131   -3.77424122988238    0.88487750659270
C        -0.08520522726546   -5.00421069319257    1.48231038526079
C         0.87821499918180   -5.99766385709552    1.52649547659409
C         0.54457064027715   -7.28704274111858    2.21528106459040
F         1.42251874591421   -8.26799164019902    1.97354228980696
F         0.49652380462165   -7.14554998969361    3.56012958030842
F        -0.66776110507563   -7.76025047748049    1.86322069079016
C         2.13590066095175   -5.78020858221205    0.96781143016522
C         2.40885296802220   -4.57016261544144    0.37303145749483
C         1.45747800262965   -3.54280907557819    0.31252993999368
O         1.82353186295324   -2.41633727191913   -0.28569104964212
N        -2.63018643971639   -0.88500413560531    0.98182143766714
C        -3.47433938733695    0.12236589767589    0.87166654011645
Br       -2.93510250342228    1.85505210758360    1.36532584535366
H        -6.89224365823410    0.76674057896349   -1.16589105666763
H        -7.46208309001884    0.40875525631040    0.49427551487636
H        -7.21302711722035    2.09587358971485   -0.02341615367700
H        -6.19274668132851   -1.42976759122948   -0.44549293334816
H        -4.57511090451314   -3.29585827886482   -0.34524331243080
H        -2.23608353059775   -4.09840014232717    0.13843394145442
H        -1.04912102092775   -5.16994903199788    1.93998079221694
H         2.88502644119899   -6.55476370081068    1.00063572492004
H         3.37245523604577   -4.38177490004155   -0.07110060463983
H         1.09783968720502   -1.76749405834476   -0.44797252357074
Cl       -0.23358074829948   -0.20866359735326   -0.66789206894483
