79
 energy: -119.163807865872 gnorm: 0.000538510687 xtb: 6.4.1 (afa7bdf)
Ir       -0.81067198426589   -0.54284298830818    1.37488284643885
C        -2.03512486844030    1.75827316558733    3.71790786952411
C        -0.96775862188098    0.85410645332603    3.19961602516703
C        -0.88662227733935   -0.53583850115398    3.59600338668102
C        -1.83981114805461   -1.20614695557005    4.52598593981216
C         0.39965522503339   -1.03399228068161    3.21280511472763
C         0.99233088901033   -2.32072643648595    3.66947957382943
C         1.04876298219121   -0.01534783202862    2.44939505661565
C         2.46344085901372   -0.05360523278034    1.97512015839771
C         0.21771597243407    1.18017869605006    2.48553888763428
C         0.74045729135520    2.53218922003759    2.08385273493477
C        -0.15505790913533    3.34740894302302    1.14532508007309
C         0.54868162029421    4.64682372073402    0.76214110776814
C         0.87374233677890    5.46669489302211    2.00831473916199
C         1.74390558063604    4.65778028373096    2.96653603892559
C         1.05455492421999    3.35074564020685    3.34933820764254
H        -3.02289761497972    1.32779956609615    3.56944376443226
H        -2.00787071261614    2.73630304776879    3.25308969128716
H        -1.88420754971873    1.87992767414141    4.79143400885344
H        -1.77312458482888   -2.28733425356242    4.44683525995180
H        -1.59387389943046   -0.92604396424658    5.55107136310781
H        -2.86301001031684   -0.89840012562868    4.32875516398583
H         0.24100592358188   -3.10103809576103    3.75529291293817
H         1.78214793660244   -2.66063844586473    3.00607926215497
H         1.42542013338075   -2.16334745154639    4.65820865303256
H         2.82758980357191   -1.07486494505945    1.91328995850203
H         2.55889045642389    0.40824613058648    0.99535854785345
H         3.09582582750725    0.49409080100924    2.67424556819236
H         1.68307187029255    2.37169080967587    1.55261058174756
H        -1.09915147478349    3.59862553410190    1.62902456456055
H        -0.36223228622159    2.76351697810458    0.24755241461139
H        -0.08983067327550    5.22548386249451    0.09183447033047
H         1.47180828235391    4.41985563565924    0.22408295478806
H        -0.05448027764491    5.75069673682106    2.51032744901007
H         1.39059625640128    6.38558241145602    1.72458296986526
H         1.94612737940137    5.24059248153977    3.86760578345488
H         2.70252648944759    4.44200134868781    2.48896355529996
H         0.13204756175701    3.57406414493466    3.88521579129693
H         1.69928898622294    2.77252022963623    4.01384941571623
C        -8.61021517509909    4.37988308291893   -0.01592240258618
C        -7.92912522437122    3.02094065888803   -0.03321011936731
O        -6.55907317940266    3.21871769605973    0.29995292708090
C        -5.72513570200425    2.17792173051980    0.34957990442264
C        -4.37860454914637    2.50017146304966    0.67275541032836
C        -3.43021149537946    1.53188455944951    0.78350930359719
C        -3.74921864238134    0.17455620788627    0.56172158501750
N        -2.79899260218170   -0.77445288939766    0.67604375934642
C        -3.08497824798666   -2.03212276048161    0.29280728381258
C        -1.96637823503002   -2.91490119292922    0.26919051507071
N        -0.81854365172964   -2.43551333153263    0.63883822278598
C         0.32658778441818   -3.23351921813217    0.57683773312859
C         1.48643329721004   -2.71893070344801   -0.00889668777238
C         2.62208318982553   -3.49675606358133   -0.08698783014592
C         2.60470206018307   -4.78932755472991    0.43372395727665
N         3.78401115475586   -5.60138408553429    0.35401183476363
O         3.73092231834179   -6.73256479246846    0.80212193415026
O         4.77776315384431   -5.11915107585024   -0.15843954842003
C         1.45714899350065   -5.30784747404295    1.02860765044890
C         0.31930385714370   -4.53222414464869    1.09750552347024
C        -4.37894239804102   -2.42430628169150   -0.10847286829505
C        -5.38143031730550   -1.49887012729391   -0.12903122812431
C        -5.08746346595847   -0.15100320666619    0.17953988239134
C        -6.05706204049865    0.85882197596465    0.10202946391558
H        -8.52809917624659    4.82817404635501    0.97031343771841
H        -9.66025211584371    4.26498815630891   -0.26748802699358
H        -8.14229452475110    5.04205599557474   -0.73922312848206
H        -8.00397915884997    2.56921465877424   -1.02999202619759
H        -8.39251481379810    2.35155028801241    0.70188665750102
H        -4.13963329708940    3.54140671879468    0.81700124897347
H        -2.40180097075526    1.78066802042745    0.98733376493676
H        -2.06250901050208   -3.92193004307525   -0.12051564005949
H         1.46715181251980   -1.72175705577767   -0.42037348577238
H         3.52461852483016   -3.12345667402269   -0.54558534918731
H         1.47647947449029   -6.31128774203867    1.42476084002695
H        -0.57021561441441   -4.91982093505352    1.56882666049649
H        -4.55173210998115   -3.45136069195062   -0.38524460534490
H        -6.38805120827639   -1.77202691428862   -0.40472393558537
H        -7.05904460985820    0.57557944909049   -0.17694517335738
Cl       -0.29332877935553    0.21962035101568   -0.82453331733290
