70
 energy: -106.732777608603 gnorm: 0.000526332290 xtb: 6.4.1 (afa7bdf)
Ir       -0.64797450081568   -0.92096418211171    1.47446498935428
C        -2.44306303645759    1.10554613081905    3.59387577015071
C        -1.18144996797759    0.37763192933684    3.28590525574521
C        -0.89931597324867   -0.97049022152802    3.69393278690386
C        -1.79402970010862   -1.82174891022335    4.53032247777872
C         0.49839441761753   -1.22051503707310    3.46378851706949
C         1.24975399095694   -2.35221192506848    4.07769951411597
C         1.03521359767226   -0.11129341488885    2.75587057167854
C         2.48013748104814    0.13891327459765    2.48220545414124
C        -0.01715926879746    0.89525276886547    2.65346392594156
C         0.21543848699086    2.29846391666720    2.27527429487807
C        -0.05132598670982    3.30156474156793    3.20616784900200
C         0.22320005636166    4.61483101223405    2.87690354453415
F        -0.03152585706172    5.57698822010996    3.78868909213032
C         0.74897331199106    4.98298957716183    1.65147161834862
C         0.99369224881959    3.96546109822551    0.74591991975034
F         1.49923603699406    4.28711624369881   -0.46245605144550
C         0.74129041608687    2.63704265384720    1.03022249495598
H        -2.50616581009517    2.04107200405460    3.04630179866573
H        -2.46789749113706    1.32171149310890    4.66287057083595
H        -3.31737577943917    0.50047075149711    3.36467405393180
H        -1.57069727465983   -2.87598985552318    4.39304007132323
H        -1.64005911378444   -1.57849273848856    5.58230577446831
H        -2.83949811134908   -1.64482818449217    4.29314886104777
H         1.22936548278075   -2.22145662889086    5.16058379147128
H         0.78983177302904   -3.31229181084395    3.85570790406664
H         2.28762023430381   -2.36515469823008    3.75958212404758
H         2.97854318762788   -0.75336910145800    2.11323984994630
H         2.60513529283731    0.93180043850676    1.75130852805051
H         2.96912266609536    0.44608080165976    3.40749858968398
H        -0.43888105117083    3.06986219789151    4.18434558878064
H         0.95840808154617    6.01237675700065    1.41354777542411
H         0.92541740530800    1.88432272399646    0.27867445397674
C        -1.97813748623412   -3.23792216086573    0.57284732074705
N        -0.76720742550327   -2.83909458391742    0.77393841335669
C         0.31258896861645   -3.75273222664787    0.42944213696506
C         1.69251136835017   -3.14123144611432    0.63615391836095
C         2.77405930994972   -4.21800231545917    0.47643736858636
C         2.41528246399987   -5.21750451736607   -0.63116293282756
C         1.52246994617802   -4.54647682883029   -1.66834965587737
C         0.16854910303260   -4.17983882806811   -1.05229035807564
C        -3.02253959676500   -2.25533415811684    0.59235215212581
C        -4.37985454120075   -2.55033445809405    0.36991726097674
C        -5.27085553127546   -1.51914404264231    0.25609610017191
C        -4.80040321373696   -0.18862397036148    0.27682623767670
C        -5.64759299009285    0.91637314374235    0.06144151535362
C        -5.14031080056717    2.18713106430925    0.02039280120776
C        -3.76255035862401    2.40299129662508    0.18751499576670
C        -2.91433432443234    1.35692627152760    0.43391600878530
C        -3.40881742765507    0.04018149590997    0.49797879927605
N        -2.57181631081134   -1.00008308715687    0.72875327309135
H        -2.20566301879873   -4.25687348760334    0.28111049196256
H         0.22060442681086   -4.63435622623998    1.07547409726538
H         1.76486287081662   -2.70560910914307    1.62721605936524
H         1.83345622781420   -2.34585439966460   -0.09458303616269
H         3.71900038512521   -3.72757250288795    0.24097251779800
H         2.91003168633119   -4.75420262875114    1.41714911024253
H         1.88990564538493   -6.07829340037779   -0.21285588665665
H         3.32392893585892   -5.59132712205316   -1.10388887757176
H         2.02118381124746   -3.65399373144203   -2.04703426918510
H         1.35803855528142   -5.21300021851984   -2.51607221952867
H        -0.50390395524551   -5.03485454572171   -1.12421024438336
H        -0.26847836547591   -3.35210865892601   -1.61274802922144
H        -4.69021776368638   -3.57958880097475    0.29882116293940
H        -6.32471432930582   -1.70456408709120    0.11706113478446
H        -6.70067917417363    0.73679465174422   -0.09000659057929
H        -5.79184252269109    3.02834923461276   -0.15690180763814
H        -3.37156328608555    3.40596730352464    0.11644245982644
H        -1.85250463522899    1.51767720035817    0.53580754773170
Cl        0.12019710753340   -0.32091414533990   -0.69683073741100
