62
 energy: -104.863614069598 gnorm: 0.000425964569 xtb: 6.4.1 (afa7bdf)
Ir       -0.43611850092329   -0.78169119396270    1.45837674832266
C        -1.99817350901291    1.07254111189135    3.86296018744200
C        -0.75015232055776    0.43837027093767    3.35689706916366
C        -0.30948473008095   -0.89141687516029    3.68544004599129
C        -0.98896853103791   -1.80514309683093    4.64680000686907
C         1.02623881278602   -1.05295521191285    3.17683947046506
C         1.95096367333351   -2.16322641024485    3.53337833128299
C         1.35819419427456    0.11165772193279    2.42660089867916
C         2.70364049315132    0.44712417819917    1.88432446670275
C         0.24802107390123    1.05095460122440    2.54862964491319
C         0.31855872775557    2.47721709321024    2.18798152297997
C         0.17994739755391    3.43350416870160    3.19330302000255
C         0.30014804382977    4.77156571637751    2.86912237271047
F         0.16967288002226    5.68838467178031    3.85020824268263
C         0.55045761725397    5.20739323296883    1.58023870465824
C         0.67883649990626    4.23348217872041    0.60513210760913
F         0.91835701525488    4.62131454385058   -0.66440229199928
C         0.56823214732744    2.88370844455911    0.87975532027329
H        -2.19182982925360    2.01259425253993    3.35365753976437
H        -1.88337963408939    1.27560625580173    4.92816814584437
H        -2.85276524929947    0.40880471984678    3.75051382480284
H        -0.70382156361134   -2.83862019315664    4.47270011875336
H        -0.69177744257505   -1.53968711138878    5.66203827642578
H        -2.06946606529410   -1.71721019685974    4.57794882945200
H         2.39574547122772   -1.94176623917509    4.50420512223926
H         1.42692383437239   -3.11202070106973    3.61090625718394
H         2.75144489005414   -2.26211333391446    2.80706960462624
H         3.21513052970729   -0.44113431172025    1.52409930386003
H         2.63154403933767    1.16654614084664    1.07413501007812
H         3.30478479836346    0.88821617944910    2.68052714743380
H         0.00833216654952    3.15016763064445    4.21879702490632
H         0.64325570607947    6.25487731055646    1.34709383353651
H         0.64757120877170    2.16320511538146    0.08054512705884
C        -5.14032966984616    2.26700454571717    0.57778964904100
O        -5.40662368711011    0.98985142498319    0.01582965353324
C        -4.49849981787427    0.02747279840281    0.08417959809038
C        -3.25180135650037    0.12124685610646    0.70974469555829
N        -2.38874903167149   -0.88820301401528    0.74930131960507
C        -2.70133957278634   -2.06148722146683    0.15368025310188
C        -1.65466560091478   -3.03492718978110    0.20025874869195
N        -0.53832684970872   -2.66938330647368    0.74484592668471
C         0.53786268477742   -3.56663584703062    0.80762370990947
C         1.79884724375525   -3.15119011340395    0.38157598123912
C         2.85768653981013   -4.03956436134490    0.41110115702147
C         2.67609729811080   -5.33000064756090    0.88685078078712
C         1.42512550997120   -5.73746307938530    1.32528737352084
C         0.35254045866126   -4.86616354071632    1.28014916933956
C        -3.93006613753366   -2.24985354556980   -0.48697228562946
C        -4.82658204989275   -1.20839660647212   -0.51996255324064
Br       -6.51463835186034   -1.37392024113159   -1.37339397658405
H        -6.02178103822429    2.86503458220941    0.35727877098281
H        -5.00762430087067    2.19666239114820    1.65909492966045
H        -4.26382108963578    2.72215615274901    0.11349158717042
H        -2.93948174622284    1.04016732947364    1.18107450698276
H        -1.77847281522013   -4.01498884185115   -0.24493225722723
H         1.91735762531917   -2.15092455839608   -0.00659255252669
H         3.82862827523973   -3.72568975203688    0.06046220300616
H         3.50753895886270   -6.01667163354310    0.91521456342874
H         1.28293289397120   -6.73910344369676    1.70013356084308
H        -0.62035176270817   -5.17389133355759    1.63155754994273
H        -4.15954124408887   -3.19224553732641   -0.95716623363661
Cl        0.05808878912173   -0.14374093004169   -0.78714086401807
