79
 energy: -125.440368960649 gnorm: 0.000899186870 xtb: 6.4.1 (afa7bdf)
Ir       -0.37786552359298   -0.66533105732316    1.45670143988727
C        -1.57313027793794    0.91794513268280    4.20316876817284
C        -0.40276146324402    0.37456706110244    3.45865408605016
C         0.14630410121227   -0.93792469500706    3.60875669146768
C         1.36629445746956   -1.00121826972806    2.84111909776108
C         2.39130365236198   -2.07934616251289    2.93259005588714
C         1.53957965334034    0.24873142842267    2.18325276034042
C         0.42169460579957    1.10085438543975    2.53551812096411
C         0.36777576113768    2.54854973306187    2.27565217408986
C         0.40835838550586    3.43661025826998    3.34904022921885
C         0.44172200883144    4.79874856177569    3.12774063964847
C         0.43431779184897    5.31459907179149    1.83237204598200
C         0.49436056521186    6.76602079123262    1.60259461351804
C         1.26481279386348    7.28774708428470    0.56491722766793
C         1.33125534920144    8.65266079217227    0.35368063593511
C         0.62604615838709    9.52020525463668    1.17194312557314
C        -0.14396275290276    9.01305158459067    2.20593564615363
C        -0.20742460675230    7.64872637313055    2.42173457186014
C         0.37672849427142    4.42097859583389    0.76336876956689
C         0.34506802986501    3.05743131901954    0.97943442460728
C         2.74873664423406    0.67080995524718    1.42355280464826
C        -0.32006703035785   -1.97079304101375    4.57589347052488
H        -1.28968910087128    1.07770104240790    5.24405405352819
H        -2.41018173446174    0.22331865662968    4.19372917460035
H        -1.88945332896098    1.86849129385893    3.78299587658857
H         3.03531408066708   -1.87743665274809    3.78947976775530
H         3.01215560987879   -2.10571176872701    2.04221937484205
H         1.93596764659609   -3.05596497963722    3.07313836458897
H         0.44575668763300    3.05632444805102    4.35835180164840
H         0.50421159261991    5.47180340410565    3.96951736323180
H         1.83366243663174    6.62126752871051   -0.06691283836846
H         1.93834113970102    9.04265774570204   -0.45057323947970
H         0.67782220885937   10.58619785086128    1.00542386410837
H        -0.69674617041191    9.68474036166030    2.84688458112727
H        -0.82150328615619    7.26431364298522    3.22288954410321
H         0.34342119169683    4.79969970428360   -0.24714620059679
H         0.29117849743846    2.37716060661364    0.14235374810490
H         2.92974782725403    0.01389107804802    0.57518389985997
H         2.63089736678972    1.68487501360673    1.05217532191928
H         3.61900245090372    0.62921055925067    2.07857748483020
H        -1.38974179229248   -1.89252098517596    4.74885959893216
H        -0.08671247684242   -2.97180765059813    4.22162046162285
H         0.18943538827132   -1.82480646845676    5.52909506645504
C         3.69013608116383   -3.37942255678848   -1.23748836972730
O         3.36365439254712   -4.50007827086404   -0.43483484973513
C         2.18882724985360   -4.51180745811798    0.22097457737778
C         1.91576787592646   -5.66684743407906    0.96593120553032
C         0.72597846401894   -5.77529102835936    1.65676161401864
Cl        0.40004804866007   -7.21127381517108    2.57492239927589
C        -0.22211761089963   -4.76238463383478    1.62939308218615
C         0.06556343638530   -3.61032495907810    0.90457838710506
N        -0.85472503302605   -2.55240415292706    0.86917649809422
C        -2.06674025876733   -2.75102489154861    0.46250239585831
C        -2.93430894046879   -1.61581134240177    0.44326808443058
C        -4.24549699433680   -1.62655322047193   -0.04338579021054
C        -4.97498295072849   -0.46197394807336   -0.04521714857222
C        -4.38420237192194    0.71941574172604    0.43575502433719
C        -5.10433388609833    1.96235922903710    0.46808755032009
C        -6.38711435557785    2.28059095348693    0.06523307154895
C        -6.56112776988001    3.64841677469326    0.34133105647700
C        -5.38364631157658    4.07276314133772    0.89152312126824
O        -4.50534409066921    3.07073358443133    0.97112102258564
C        -3.06186729677034    0.64948986516627    0.89869769113850
N        -2.36571794419940   -0.47451815597346    0.91257524854823
C         1.26345929307169   -3.47228236826428    0.20875275633226
H         2.94840212917880   -3.22443050074005   -2.02455567157471
H         3.78090161207051   -2.47305427484017   -0.63387056818359
H         4.65323674323454   -3.61400992534450   -1.68566064637938
H         2.64605061286698   -6.45831822314317    0.98151724015543
H        -1.14605936966376   -4.85814005736494    2.17466943706793
H        -2.39892557051320   -3.72113797291508    0.11155337977698
H        -4.66350624085539   -2.54794630352246   -0.41513312758912
H        -5.98687706309213   -0.45017688672538   -0.41409114354927
H        -7.11245417450435    1.62717258338425   -0.37298005298938
H        -7.43595106485954    4.23706111177644    0.15941736648171
H        -5.07361582481980    5.03414793256631    1.25017419576330
H        -2.57318510789316    1.54293319970121    1.25994316183155
H         1.42618042821249   -2.56594183492245   -0.35157739661934
Cl        0.07064983123786   -0.21223349031492   -0.83655827129647
