74
 energy: -122.226460631945 gnorm: 0.000546020152 xtb: 6.4.1 (afa7bdf)
Ir       -1.36387841325117   -0.94255977051791    1.70439661493641
C        -1.19804644074569    1.03352896279201    3.99093250581385
C        -0.30085693330349    0.45766988684264    2.92049512973613
C         0.25243877134341   -0.89745972785780    3.07337667741869
C        -0.19230065645827   -1.83382395037134    4.17196679234042
C         1.58752974763760   -0.86445236234995    2.55212020224655
C         2.51744587606734   -2.00984897125100    2.49134843577360
C         1.86245073438433    0.43258765768847    2.07645946650192
C         3.13159332188389    0.84032757700734    1.41157110192822
C         0.73612780552291    1.23822450547088    2.25383596445000
C         0.63722035108920    2.63965438484355    1.76338010036903
C        -0.71080493105533    2.99356029019087    1.12566997969725
C        -0.65018568579803    4.40757882282838    0.55580594406424
C        -0.32431504921430    5.41442432587302    1.65679558430107
C         0.99378178260260    5.05577626283830    2.33807684342318
C         0.94752471007949    3.63754937349026    2.89830931628051
H        -2.00671458863461    0.35089011304474    4.25794791154095
H        -1.61651463444543    1.98935408542156    3.69371006218943
H        -0.60123206993853    1.19261747151294    4.89068720983911
H         0.26537903680300   -2.81263418568331    4.06253645900329
H         0.10093614346052   -1.42769242014892    5.14038934302550
H        -1.28094646319385   -1.95457209671554    4.18853414021130
H         2.02618584773477   -2.94073316848314    2.75737197772121
H         2.93746363141656   -2.10415563729993    1.49069800897212
H         3.35107632342809   -1.84514139867128    3.17554482368380
H         3.92636087018330    0.13601252996152    1.63596408983427
H         2.99571275247567    0.86818709324637    0.33034838899051
H         3.44024383024249    1.82983914231153    1.73955024353835
H         1.40603781402428    2.77373309617760    0.99582646092668
H        -1.51231201624875    2.94820898137876    1.86102635221939
H        -0.93379422798462    2.27688884713104    0.33472123715625
H        -1.60615705720669    4.66065429023823    0.09378275796119
H         0.11639571581685    4.45858963575637   -0.22050447653597
H        -1.12649179400121    5.41776522358656    2.39816961182654
H        -0.26006066019349    6.41963442385709    1.23532582743396
H         1.19658327634523    5.75966805367570    3.14810856929455
H         1.80846228237619    5.13836752824323    1.61515881092900
H         0.17735396943185    3.57608201053011    3.66666798627570
H         1.90490535288544    3.38644029254699    3.35744163973113
O        -1.75582258074828   -4.57448961555113    3.05088468081508
C        -0.73137795660348   -4.66708108129853    2.19635821402921
C         0.26405134396504   -5.61140690846477    2.44583628863336
C         1.32819014370428   -5.76326952647065    1.58118059638898
C         1.40784797707289   -4.96970428684161    0.43952390332121
C         2.57001479483622   -5.08694551931682   -0.50075787229888
F         3.45086386671695   -4.07218796441579   -0.34755542687997
F         2.19597527794218   -5.04899720179472   -1.79400772540273
F         3.27582891275298   -6.21617238934870   -0.34186050748765
C         0.43124546692037   -4.02452957790089    0.16808368242193
C        -0.63532053419953   -3.85998045156368    1.04554015968587
N        -1.59057322287591   -2.86224781450004    0.83166612954971
C        -2.17790038410572   -2.74005053544771   -0.31597742077282
C        -3.09520141902766   -1.65062118412948   -0.47714500406566
C        -3.96235094668817   -1.55266491489828   -1.58385610913919
C        -4.86367246638150   -0.52805221785692   -1.63758156160884
C        -4.92584216995226    0.39704185596439   -0.57064661150404
C        -5.86368062579135    1.44499767696176   -0.53550287026470
C        -5.89513318205322    2.30535215824369    0.53229096640971
Cl       -7.05733728426045    3.58785706928087    0.58472685565922
C        -4.98972863668306    2.16212760415928    1.60018858517352
C        -4.06312707016538    1.15820474440296    1.57936401516955
C        -4.00443938065760    0.24815326659014    0.50531601212929
N        -3.09818028456456   -0.75475480469415    0.52212857944039
H        -2.42603796833783   -3.94674770819067    2.73909804487998
H         0.17857271331941   -6.22201935624798    3.32981256936310
H         2.09325088987776   -6.49534083822263    1.78478446252172
H         0.51035187221658   -3.38220293753130   -0.69537442562614
H        -2.03094114665081   -3.45667151288150   -1.11656795386272
H        -3.89624194467868   -2.28919196276321   -2.36782308961331
H        -5.53563447542070   -0.41753335638180   -2.47430559535931
H        -6.55954982891782    1.55466857157273   -1.35167149860316
H        -5.04366108829944    2.84910734289268    2.42871053420283
H        -3.36353054419026    1.03666571416146    2.39123494106041
Cl       -0.18418844345297   -0.38577651656658   -0.19548264339598
