70
 energy: -108.969720222375 gnorm: 0.000242831240 xtb: 6.4.1 (afa7bdf)
Ir        0.09574517072590   -0.89200892872635    1.47264821377562
C        -2.02195171589774   -0.02413119715265    3.95053184618241
C        -0.61728643175152   -0.18519595309920    3.48370520568801
C         0.19107722984080   -1.34524024444682    3.67853111562871
C        -0.21466978294530   -2.55692706934413    4.44331679293127
C         1.51718256294567   -1.05202810650935    3.18986656078377
C         2.74103166957353   -1.87456071011134    3.42139456202089
C         1.53287321599554    0.30613194532213    2.73496377188725
C         2.74647773347599    1.06609437796909    2.33742084908933
C         0.19998606818306    0.82825563091249    2.86085267439706
C        -0.16916935862646    2.23310934222321    2.63700210384048
C        -0.75051075367751    2.97852724146571    3.66118904146970
C        -1.05491507194226    4.30756867506775    3.43260121051373
F        -1.61211163046610    5.02351397984249    4.42919517214407
C        -0.81657256066091    4.93144632541673    2.22048105640088
C        -0.23863309991347    4.16388976082444    1.22401517652273
F        -0.00501011947832    4.73315600878953    0.02395628055118
C         0.09117188725535    2.83442183269237    1.40547032485418
H        -2.48967092340600    0.84542333036263    3.49791731781554
H        -2.02728318706117    0.10362662963647    5.03355932583313
H        -2.61498175998610   -0.90679029761061    3.72280023932251
H         0.36287940249369   -3.42846253856057    4.14952805351896
H        -0.03422602645767   -2.37866890406007    5.50415427188240
H        -1.27157685599836   -2.77106140664451    4.31303199290922
H         3.20844304700705   -1.55580573673864    4.35387451673059
H         2.50328608694545   -2.92990817187158    3.50970808111657
H         3.46029469011448   -1.73703560254915    2.61903120078563
H         3.07234854632840    0.78339403640411    1.33677712345649
H         2.54600249249152    2.13411435510759    2.33664496246116
H         3.55806242779957    0.84908799197812    3.02936296484704
H        -0.93767699362490    2.55001822065457    4.63178206596339
H        -1.06262229007893    5.96800120478094    2.06229936925433
H         0.53330676474147    2.27134605758414    0.59748015299943
C         7.04037784858809   -4.82139379351432   -0.55167769602863
C         5.70631989627892   -5.18768294557598    0.08967035259492
C         4.61948917753472   -4.16483357989747   -0.23748029851512
C         3.28814498042373   -4.51037349728078    0.42784501819665
C         2.22177158959469   -3.46463636264696    0.11301530600033
C         0.88994547616517   -3.79449858073694    0.80297110964156
N        -0.05656818009418   -2.72683090732685    0.60263824973601
C        -0.99660950547604   -2.86444067915009   -0.26731580754036
C        -1.87647490324177   -1.75010313282415   -0.47561737001299
C        -2.89872645895980   -1.71400938732002   -1.42774200304282
C        -3.63750568488918   -0.56185381485835   -1.56406031606116
Br       -5.03997786075115   -0.42302566683698   -2.83665968705857
C        -3.35523882756295    0.55918419921867   -0.75064228279263
O        -4.09582242439315    1.64400545725378   -0.93774854774164
C        -3.83596591311177    2.82069962443871   -0.18904184102086
C        -2.32992418364027    0.42420980075913    0.18801793934769
N        -1.61961344894651   -0.69043653316776    0.32125099395307
H         6.94626447551820   -4.77619796836164   -1.63479363083513
H         7.79960400092862   -5.56079342272378   -0.30585018731484
H         7.38230116267482   -3.85069843146730   -0.19845916267306
H         5.83411734339006   -5.24879013713783    1.17278620297516
H         5.39591203871480   -6.17393392780491   -0.26304593282659
H         4.48578431325273   -4.11800713810451   -1.32025128694576
H         4.94765373154714   -3.17759488935414    0.09452139827044
H         3.43709048637617   -4.57395492299223    1.50713965545324
H         2.95750343697337   -5.49074563232660    0.07967485576297
H         2.06065341461137   -3.41320962580269   -0.96448617722431
H         2.55934902369257   -2.48047958028804    0.43993488546553
H         0.49339429368714   -4.73221157946613    0.40342140545537
H         1.06101690125824   -3.90822289641804    1.87442188190530
H        -1.12600421015944   -3.77908953325623   -0.83577711764975
H        -3.09249322766364   -2.57078076249150   -2.05241025990619
H        -2.81613109735803    3.17384660237252   -0.35614897406978
H        -4.54327752539951    3.55874959782796   -0.56088227982767
H        -4.00805007325489    2.65348349543347    0.87619790399384
H        -2.06972884356688    1.24407416181346    0.83994004835617
Cl        1.15536834317648   -0.15909568949537   -0.52637094560529
