71
 energy: -114.352412289035 gnorm: 0.002277363608 xtb: 6.4.1 (afa7bdf)
Ir        0.66472307685925    0.18890911476412    1.94661743782312
C        -1.06254492720448    1.30903346407237    4.76764850959887
C         0.13126712723734    1.35299962278390    3.88361516422997
C         1.29416566629813    0.53821658836028    4.09008663161238
C         1.46071665603613   -0.38654961068460    5.24808388062642
C         2.32591561197029    1.00742274883646    3.20471738399905
C         3.78347100009468    0.71388161060342    3.30001216106713
C         1.77280716350982    2.06031698308151    2.40372293646065
C         2.56156276921547    2.94128308036697    1.50247715698014
C         0.40396106872450    2.26367030086108    2.81646249841085
C        -0.40432302325986    3.42145923623012    2.40818574828090
C        -0.87435710502835    4.30985436246149    3.37263273957049
C        -1.59560127942283    5.41751458359927    2.97014390937701
F        -2.04382506278210    6.27405902508823    3.91185323200418
C        -1.87476345645530    5.68556509094535    1.64243883812002
C        -1.38981454604623    4.78624675429617    0.70940541650692
F        -1.64616921219767    5.00959461550417   -0.59739996826764
C        -0.65937856485274    3.66884658294399    1.06107532583920
H        -1.83009485024529    2.00075555031927    4.43786396227690
H        -0.75376716831156    1.57529591274517    5.77934721181629
H        -1.48440631366148    0.30721962605018    4.81178299761366
H         2.35897024262632   -0.98779807157298    5.15432867623852
H         1.54395006572965    0.20363260531342    6.16135934411624
H         0.60037127539239   -1.04147922912185    5.35482642999769
H         4.22483728323538    1.42469937071089    4.00007673041713
H         3.97915719841385   -0.28540196095274    3.67227954250057
H         4.27582688578038    0.85007422951519    2.34197701958131
H         1.92824596742212    3.69229979752706    1.03938844268027
H         3.33821051887711    3.44076308291709    2.08138476502601
H         3.04514737709969    2.36778632179740    0.71432485678106
H        -0.66817848643640    4.16391471600170    4.42007151162100
H        -2.44128120678489    6.55261513292471    1.34707047427386
H        -0.32329355186895    2.98570595909209    0.29648021339845
C        -5.73758908357064   -1.39133527748326    0.16925830774806
O        -4.62606112780153   -0.69405935439992    0.71398657787787
C        -3.43392101185973   -1.27698071619710    0.74496698250481
C        -3.12084587343621   -2.55995549112180    0.28983863959414
C        -1.81249970015002   -2.98739424667298    0.37620044264249
C        -0.84015463111549   -2.15363630110665    0.92525589167857
C         0.55190379216987   -2.48055730714508    0.92666029350799
N         1.39643737234516   -1.62570796251104    1.38792388673992
C         2.80342671504600   -1.95031947483518    1.30963480380365
C         3.27359327525146   -2.76847896541411    2.52345292201373
C         2.84677407088928   -4.23859515568799    2.46776242030807
C         3.48657747332711   -4.99811609353151    3.59972941464879
C         2.87135281770665   -5.06710272973476    4.84297665092154
C         3.47360803887083   -5.73829886308127    5.89225543438915
C         4.70375587835303   -6.34734741975412    5.71028680355835
C         5.32656802122083   -6.28200055499084    4.47492941518486
C         4.72233867048839   -5.60920249853984    3.42758246669866
N        -1.14010417644927   -0.91986129151594    1.41514789845079
C        -2.38843793630871   -0.50538739747900    1.30044661235562
Br       -2.88257072353187    1.21721371991757    1.87544990234107
H        -6.57577450630918   -0.70320317197997    0.25481816695799
H        -5.56810647839385   -1.63401190771041   -0.88166315949844
H        -5.94709751678375   -2.29857670340671    0.73881545752858
H        -3.87751530616621   -3.19623008088257   -0.13857210203497
H        -1.53123635563416   -3.96031488852101    0.00709824365800
H         0.87573310338944   -3.41385878386557    0.47779729948677
H         3.36069641584014   -1.01592142884858    1.25879674854832
H         2.99866463136017   -2.52008812014091    0.39629150710952
H         2.88351404305658   -2.32388275348279    3.43849748900861
H         4.36326791123018   -2.72188253521570    2.55327371872281
H         3.16311428129563   -4.67552966856623    1.51912136149487
H         1.76109729413851   -4.31485106754673    2.54932178653459
H         1.90806259783288   -4.59894529549614    4.98798677254659
H         2.98569574431268   -5.78973109033255    6.85505547566592
H         5.17406868918501   -6.87457002212624    6.52777805988108
H         6.28499938424544   -6.75783139716456    4.32844064186310
H         5.21421001601178   -5.56588350573827    2.46615991492882
Cl        0.65794598957886    0.63246460515018   -0.39624933014880
