67
 energy: -100.309986452556 gnorm: 0.000419756330 xtb: 6.4.1 (afa7bdf)
Ir       -0.76468125193223   -1.35912465081474    1.29997263039111
C        -2.13566116298733    0.82948931358417    3.62739209323851
C        -0.97765716562977    0.05087034200935    3.10311082350228
C        -0.66552206305837   -1.29964494682040    3.51591058589357
C        -1.43438180361089   -2.07664865847731    4.53113385226488
C         0.66208990489401   -1.60861220659339    3.05471743587682
C         1.48118032473768   -2.76692897211887    3.50680980057811
C         1.09193778813894   -0.53535672030969    2.22787150794907
C         2.44302052357252   -0.35037420796655    1.62679378805748
C         0.07695374776885    0.50658647920054    2.27574525019245
C         0.28468508783377    1.87847567520432    1.72581865023608
H        -1.96872262777135    1.02742862652712    4.68674988251532
H        -3.06445063489340    0.27158171275969    3.53558152120373
H        -2.24826202859810    1.77914134941385    3.11461842464706
H        -2.50218164726046   -1.90125719480796    4.43131648505760
H        -1.24024778168682   -3.14172530236782    4.43866155403005
H        -1.13127156621600   -1.76325686611605    5.53078165386186
H         0.86726589612674   -3.64400444867895    3.69283911564931
H         2.24531771070366   -3.02539172903194    2.77964234454906
H         1.97592109574361   -2.49562404966515    4.44017185284787
H         2.36088803605144    0.06634149679619    0.62536085522012
H         2.98283906509555   -1.29095815947634    1.57408355584360
H         3.01734456102453    0.34753582718352    2.23649177804510
H        -0.58875003653497    2.50700100840558    1.87400422718370
H         0.51197891922031    1.83548325734890    0.66167204275146
H         1.13362964764339    2.34114524043230    2.22892001945426
C         4.87162125683276   -9.69229931079050    2.40598510094000
O         4.83390845504067   -8.43882954748113    1.75213556484280
C         3.67504021648487   -7.74210402582826    1.71423845818603
C         2.46385910786149   -8.17919812404304    2.29461687133032
C         1.34073847398791   -7.40559171370393    2.21285755229270
C         1.35559875226389   -6.16038032822997    1.54987661854387
C         0.21051944352112   -5.35295989059469    1.45635258410323
C         0.26617558843383   -4.12613185986674    0.82740811011279
N        -0.85071904364330   -3.29396086057521    0.76141907347537
C        -2.01768134074596   -3.77169731199699    0.45211756983177
C        -3.09403821503876   -2.83604709450347    0.37217144043532
C        -4.40378330804799   -3.19499412267634   -0.00723627648021
C        -5.35476595239306   -2.22196962783510   -0.11607414337559
C        -4.99026787828103   -0.87147226365718    0.07918889841689
C        -5.90264949955701    0.18793897762540   -0.09089674188773
C        -5.49601370744943    1.48849673654129    0.04177111443188
C        -4.15453294781134    1.77963892961508    0.33493325188451
C        -3.24878345409150    0.77292397421012    0.53518257900757
C        -3.64129282990765   -0.57472716933574    0.43452508255413
N        -2.74261693015207   -1.56887018205443    0.64309142341042
C         1.48063906200915   -3.67733579353550    0.25428533220731
C         2.59343427886053   -4.46070695803311    0.30787467573124
C         2.57462898646647   -5.71690245898788    0.96292293026040
C         3.71347920093904   -6.52411900208789    1.05905824890140
H         4.19689007268495  -10.41034261253568    1.93158209053206
H         4.62612096585834   -9.59641011974867    3.46728414513520
H         5.89746409438353  -10.04068618473183    2.30355558444958
H         2.41942643758513   -9.12690741348101    2.80651539502840
H         0.41971348253778   -7.74904248338922    2.65962429238238
H        -0.70563566158478   -5.68561387705670    1.92210381953645
H        -2.15693857056499   -4.81427666664364    0.19294019753983
H        -4.62740044190585   -4.23195084511979   -0.19644629093078
H        -6.37482139762966   -2.46181040459871   -0.37380900195377
H        -6.92479948703935   -0.04843270686532   -0.34416575564425
H        -6.19784107324823    2.29593812824318   -0.09706540042683
H        -3.83909661382550    2.80973303388775    0.39473029455850
H        -2.20875770660171    0.98741123053485    0.71910932563465
H         1.48625942458193   -2.72319153859387   -0.24935307300278
H         3.51450345355575   -4.13061504816893   -0.14793304720577
H         4.64456480636517   -6.20199618176039    0.62014644608736
Cl       -0.24891503912487   -0.69324649776417   -0.93822307191003
