76
 energy: -113.972302391349 gnorm: 0.000554693060 xtb: 6.4.1 (afa7bdf)
Ir       -0.71665464297816   -0.99599638240890    1.44066764752682
C        -1.69195880332538    1.52424024446662    3.75481634569627
C        -0.71689769572197    0.55012917329485    3.19100712280251
C        -0.64998596336223   -0.82421984682127    3.66164229590788
C        -1.55864360230919   -1.40605176995754    4.69117750908939
C         0.58812808360611   -1.38313444136313    3.23277703732321
C         1.19451720032504   -2.64564014532444    3.73770584897686
C         1.19727471207568   -0.43644762755459    2.34129376237408
C         2.58025367552643   -0.53872002115719    1.79058209446856
C         0.41112963834024    0.79316153612119    2.37665201158436
C         0.92948738708905    2.09700103374760    1.83856240880822
C        -0.01756804271481    2.84348837257087    0.89546612890965
C         0.67383510118465    4.09136301262554    0.35414222526001
C         1.10070223944817    5.00811378629938    1.49794372157218
C         2.02031918707039    4.26634795855853    2.46413320545027
C         1.33476373392168    3.01461104544855    3.00415480257442
H        -2.68650542262129    1.09249055020266    3.82947980873563
H        -1.75275723066802    2.43313153736588    3.16840271933595
H        -1.36672602221220    1.77991077265552    4.76472140797854
H        -1.51373862307074   -2.49131356626378    4.68707660783943
H        -1.25278874679358   -1.05625254066842    5.67778252753314
H        -2.58709300156858   -1.09407276263296    4.53047032197153
H         0.43947488850522   -3.40138236931762    3.93526957608913
H         1.92213105400008   -3.04982964781689    3.04042280646022
H         1.70541672719659   -2.42653246691653    4.67602722133993
H         2.90294037413256   -1.57452630504213    1.73773701100091
H         2.63239664749985   -0.10213503279860    0.79593827991535
H         3.26873578052599    0.00536756646219    2.43803114578468
H         1.83379250226588    1.87780659531992    1.26388645923122
H        -0.92750587871577    3.14221614107663    1.41391183796449
H        -0.29823036340370    2.18657069473773    0.07223494227133
H        -0.00432259855157    4.62434423462978   -0.31525983855958
H         1.55270461461731    3.80185488125778   -0.22712666528562
H         0.21435802318621    5.35595613144627    2.03373384503132
H         1.61305690802241    5.88609715385288    1.09892162775158
H         2.29290374321882    4.92107173685584    3.29461110575455
H         2.94008211932689    3.98728824615291    1.94498596508810
H         0.44993837277059    3.30619887412588    3.56874091970095
H         2.00842998322121    2.48228573911694    3.67845691981249
C         3.94320111157582   -7.28027934604399    0.99205812617872
O         3.81387470942544   -5.99919286394622    0.40568489021170
C         2.66368633246984   -5.31799245555007    0.57054904079452
C         1.57160302609141   -5.75134389610547    1.31107847357723
C         0.42600302969123   -4.98032539509420    1.40995934669774
C         0.37288989214150   -3.73467707093101    0.79407676166020
N        -0.76852193261387   -2.93420199973023    0.86942048356765
C        -1.93492606931745   -3.46551025886303    0.67858657610186
C        -3.07799756486460   -2.61070547645041    0.66388812659388
C        -4.36010192984204   -3.04773986839571    0.33074847254738
C        -5.38695216632181   -2.13603400970107    0.20051497083406
C        -5.10533661820004   -0.77764883523178    0.36863996472052
O        -5.96198782389250    0.23257911423996    0.24501834257145
C        -7.32018906499350   -0.03660013926391   -0.07050753933065
C        -3.78188959160241   -0.42566413886144    0.70964297027198
Br       -3.42387476197588    1.41016773537012    0.86615394348078
N        -2.81052197212772   -1.29787929915147    0.89494582689034
C         1.47212611566495   -3.27151068115879    0.06002881446398
C         2.60064869144936   -4.05437766790051   -0.08158305717432
O         3.69110277536294   -3.72339350904710   -0.80838492046921
C         3.66976703834122   -2.52195988828928   -1.55372452092121
H         3.88143772769263   -7.22522758877300    2.08229045378705
H         3.18539040798371   -7.96993087406154    0.61087423066775
H         4.93121539974500   -7.63200117610485    0.70243878206252
H         1.60170637181920   -6.70259464040321    1.81539243535618
H        -0.40579156804103   -5.33407513287473    1.99778367593675
H        -2.04241251195610   -4.51681134302678    0.43877900370203
H        -4.53719495104750   -4.09804010883985    0.16722020740613
H        -6.38101430300102   -2.46729651644314   -0.05098212276364
H        -7.78536118338818   -0.65209012062073    0.70233885800189
H        -7.40640724453930   -0.52339999285007   -1.04432881408124
H        -7.80421052421820    0.93669735852917   -0.10397468004956
H         1.38473036755367   -2.31632583594549   -0.43055569611479
H         2.83697234178590   -2.50696029020815   -2.26170373556231
H         3.60845567448000   -1.64918157082994   -0.89937170274533
H         4.61162783076411   -2.50218494335837   -2.09786769914438
Cl       -0.44634412238571   -0.40472436680806   -0.84935401078479
