76
 energy: -122.759374127345 gnorm: 0.000820660140 xtb: 6.4.1 (afa7bdf)
Ir       -0.53510492543458   -0.97372385829602    1.60670536214501
C        -1.54680880078539    0.79429542088391    4.40286392039668
C        -0.46458479298079    0.13828473385913    3.62136142385854
C        -0.08210785424118   -1.23896990520074    3.77222748893403
C         1.13274049437934   -1.44545279220027    3.03182593198818
C         2.04050664984079   -2.61749548371759    3.16844413694190
C         1.42694621176914   -0.23695872914883    2.32665993075277
C         0.43468985958689    0.75519094523337    2.70183657665385
C         0.55587825553674    2.19578214542604    2.43803936711435
C         0.63232406552231    3.07900014509146    3.51378393408555
C         0.78888664319554    4.43269004279632    3.29704486082649
C         0.87334265369899    4.94528024132634    2.00402108346419
C         1.03193769891801    6.38957580037486    1.77834639164150
C         1.90334470917517    6.86572353886847    0.80091951777447
C         2.05377035459343    8.22474194577362    0.59374715798452
C         1.33127010310414    9.12992026698559    1.35407098131937
C         0.45853185557125    8.66740385939365    2.32587447327132
C         0.31214437890518    7.30906071197081    2.53909980589434
C         0.80129289339416    4.05741596279173    0.93211731957487
C         0.64356937324146    2.70300491107605    1.14402083155771
C         2.68332359807008    0.04730206401038    1.58152786067289
C        -0.66770926733850   -2.18524827573097    4.76438698161241
H        -1.25694412936353    0.80964772484850    5.45430159828388
H        -2.48016154936502    0.23959715280459    4.33137961594649
H        -1.71079252090045    1.81376741124734    4.06796754080436
H         2.71238002633384   -2.43246225029109    4.00762301938913
H         2.64650138041101   -2.76148473417558    2.27893980202937
H         1.49056265947038   -3.53216209449615    3.36990722258386
H         0.59741127605178    2.69989144820924    4.52339194799297
H         0.86726467989787    5.10205144802095    4.14057958951561
H         2.48152474277822    6.16714652250008    0.21391181335378
H         2.73771267111134    8.58134365609707   -0.16273851107118
H         1.44817118139981   10.19120140291772    1.19014963732741
H        -0.11030187524185    9.36951119256573    2.91830094779315
H        -0.38172627790955    6.95599125804210    3.28795713245929
H         0.84580362412910    4.43721340565046   -0.07758357038965
H         0.55350290213604    2.03463865208274    0.30125645646706
H         3.06452432422184   -0.84938366772338    1.10056807063027
H         2.52809826290606    0.81699016886309    0.83135371756311
H         3.43636290430222    0.40415439333137    2.28524038593233
H        -1.73491593119135   -2.01914642129281    4.88143615212315
H        -0.49683509587730   -3.21710825012982    4.47031557470890
H        -0.19266400055819   -2.02696404851052    5.73325074292625
C         3.46405404562838   -3.17914048272415   -1.55665290441523
O         3.29285825474406   -4.38065411688103   -0.82686698334771
C         2.18264853597774   -4.53218750368446   -0.08251996800218
C         1.19035476312593   -3.57465399282072    0.09273124144509
C         0.06478401238695   -3.85581311495878    0.86715037916965
N        -0.92524615218066   -2.86799295106004    0.97801597783056
C        -2.15800661670934   -3.17258353585007    0.73277062336355
C        -3.12341925430119   -2.12018232940033    0.75617332680136
C        -4.45097647973662   -2.28194159790007    0.36194118401802
C        -5.28206299475506   -1.18474920225875    0.27312114326948
C        -4.75996377100718    0.08083967292731    0.55796832515562
O        -5.40470087624525    1.23702404831806    0.48963433501824
C        -6.77010078141520    1.26071529989466    0.09563175574488
C        -3.40854421744968    0.15297268084546    0.96734915241718
Br       -2.73249279628086    1.87423298156941    1.31618795958111
N        -2.62305085244407   -0.90019973343431    1.09504586131927
C        -0.07974426121103   -5.08663400208494    1.49967310792594
C         0.91598312950615   -6.03923756475921    1.35808943155473
C         2.01799353427161   -5.76298476658921    0.57821830766452
F         2.97508880403931   -6.70410994988831    0.43999121952106
H         2.64725782228200   -3.02783943844105   -2.26618704543888
H         3.53610747610600   -2.31637445529301   -0.89021172595801
H         4.40016978684461   -3.30098478649099   -2.09658781007120
H         1.24609298645050   -2.61299092932379   -0.39212500215418
H        -2.44573944976156   -4.17339880080419    0.43142127949879
H        -4.81492133827976   -3.26606419645114    0.11532675326832
H        -6.30829592942092   -1.30287506414259   -0.03396622454104
H        -6.89263747667306    0.86359464395644   -0.91420206826021
H        -7.38864548331368    0.70071368983061    0.79990314616433
H        -7.05380626931296    2.31055204960573    0.11284404027989
H        -0.94330881706612   -5.28860879893302    2.11233357261783
H         0.84363642655268   -6.99983909359212    1.84189680592527
Cl       -0.24648217281334   -0.36657772135740   -0.68230142221812
