69
 energy: -127.648119551006 gnorm: 0.000868387869 xtb: 6.4.1 (afa7bdf)
Ir       -0.25521393370001   -1.08592975482391    1.46217630002653
C        -1.68836800783697   -0.06227862844220    4.31976919703676
C        -0.44521269053057   -0.22904988969309    3.51973300859238
C         0.44522864136138   -1.34289046582867    3.58687222243130
C         0.31903270252632   -2.51621707526152    4.49220602528001
C         1.57806771608373   -1.06071746698013    2.73969541247784
C         2.85061951962250   -1.83552397769264    2.71318138602224
C         1.41547073714587    0.26169217616978    2.20067528446591
C         2.44969479170534    1.01373665128415    1.44763354324134
C         0.13910305407678    0.75424161485900    2.63125976751729
C        -0.34904087859580    2.12283500008695    2.40506749359277
C        -0.71887597015251    2.92228670134019    3.48471492088753
C        -1.14560142110815    4.21555194326638    3.24596918344084
F        -1.49442250221826    4.98309459447571    4.29569528766752
C        -1.22943901642815    4.75123443045163    1.97284146388163
C        -0.85370614298843    3.93331084522860    0.92161274376468
F        -0.92432753586521    4.41711201543610   -0.33300418289580
C        -0.41401840664651    2.63633548667228    1.10937573296894
H        -2.32558095696841    0.71312602876253    3.90327825155429
H        -1.42249297033697    0.21920293337325    5.33952138839567
H        -2.24788767492747   -0.99294613718318    4.37493511393924
H         0.71031590884427   -3.41743785508659    4.02668321994809
H         0.90094577190805   -2.32610565631616    5.39466375870062
H        -0.71318807009162   -2.68279753029238    4.78380992164668
H         3.47999789373741   -1.49789382509129    3.53764722727618
H         2.66831208524148   -2.89826847256666    2.83970361010857
H         3.38696395493710   -1.67000603161142    1.78436485016137
H         2.55765127145062    0.62016318721638    0.43725156369743
H         2.18488305929245    2.06502099870757    1.37671409442083
H         3.40959600378775    0.91291328502109    1.95076242821419
H        -0.65154029270392    2.56506438228958    4.49861506271909
H        -1.56878857619022    5.75996657077755    1.80733719137118
H        -0.14032242602907    2.03446441040837    0.25609517705418
C         4.47342762207603   -7.09625805266926    0.90049272220357
C         3.07464454545524   -7.20099487822479    1.39994726473001
C         2.61675324368520   -8.31865665639122    2.01224135410838
C         1.26505131299331   -8.45328869024545    2.50920220994005
O         0.81044002445331   -9.43090234219070    3.05975283943309
O         0.43397386057172   -7.37623013598262    2.34281343791816
C         0.85115730569109   -6.24642600054712    1.73275068139474
C        -0.08435969759740   -5.22159601649407    1.60861503533641
C         0.28386833724100   -4.02622033802201    1.00538814021157
N        -0.64089662309490   -2.98093676415394    0.87334450445919
C        -1.80647577851809   -3.21629843309970    0.35116738475517
C        -2.70859589417787   -2.10949408012323    0.24886656111595
C        -3.96501909771527   -2.16101358072382   -0.36227317959039
C        -4.73442901803477   -1.01652432411030   -0.41452428698642
C        -4.21417804171595    0.15455297057348    0.14395981954173
C        -5.00304279769189    1.43726410501821    0.09313913024520
F        -6.31087015024376    1.23651486978189    0.30175883854945
F        -4.59318889528682    2.32304694763224    1.01313802184238
F        -4.89366896220613    2.04445218647106   -1.10026694975124
C        -2.95627897126652    0.14236016973064    0.72569719983159
N        -2.22485878176772   -0.96206541096160    0.78890756103596
C         1.58433239727640   -3.85617194094021    0.51394123177929
C         2.49669742059306   -4.87853206314655    0.62182116279733
C         2.15907083776586   -6.09211360004246    1.23871386667376
H         4.47759172844899   -6.93252523995671   -0.17575629862886
H         5.02192891387473   -8.00818175523193    1.11617312285358
H         4.98416118924078   -6.25956960809675    1.37314840732490
H         3.24550330529683   -9.18156608476741    2.16391166023335
H        -1.07247821487498   -5.36905025157161    2.01369495175759
H        -2.07425108208903   -4.19627441960124   -0.02540038766762
H        -4.31759174245114   -3.08588432066506   -0.79016833222157
H        -5.71267002773583   -1.01762017097031   -0.87044426961500
H        -2.53481029640775    1.04372228170743    1.14908994904731
H         1.83784189312363   -2.93164872081070    0.01924146715350
H         3.48944971441236   -4.74537251840306    0.22527652657791
Cl        0.31020578234258   -0.60691762196155   -0.78678099797531
