88
 energy: -140.129406545638 gnorm: 0.000870100152 xtb: 6.4.1 (afa7bdf)
Ir       -0.96427415088396   -0.40124836947470    1.54147351478958
C        -1.88476245178841    1.16964919801387    4.39882036859674
C        -0.80879170325161    0.52704318493368    3.59419301641022
C        -0.47104949465199   -0.86115537318199    3.65956011719678
C         0.72025257119850   -1.06625925517750    2.87323576284072
C         1.55971557916848   -2.29638156843740    2.87612505508134
C         1.08453236916985    0.17921050726836    2.28650071681747
C         0.12418444945105    1.17908261857851    2.71442226194687
C         0.34450918590775    2.62153134102485    2.57327390833825
C         0.28415368760705    3.45051188618728    3.69368510433741
C         0.59361800915598    4.79041950671547    3.59175425777549
C         0.97956203116634    5.34896773472818    2.37371760591705
C         1.33053962517562    6.77212027481580    2.28203001065352
C         2.36326467013900    7.20079461023573    1.44991717900298
C         2.70379446478573    8.53867325250562    1.37741216630629
C         2.01912574217302    9.47483817790731    2.13508897954908
C         0.98890023041584    9.06189859079094    2.96418508783916
C         0.64760738488387    7.72339093379467    3.03794180456529
C         1.03906636321071    4.51728917897211    1.25683712884087
C         0.72415708191006    3.17703283112828    1.35203435765203
C         2.34363394788564    0.44233476493216    1.53675053433360
C        -1.08242370333324   -1.86000937980383    4.58209007394860
H        -1.56606971981855    1.21980265104847    5.44079193325212
H        -2.80166378950266    0.58476382977599    4.36588620625942
H        -2.08575195226973    2.17490800640353    4.04227687535892
H         2.29236480349734   -2.21530343222380    3.68049527089949
H         2.09270935072021   -2.40888164196423    1.93647802807810
H         0.96307672734047   -3.18739293023522    3.04944048483876
H         0.04059544059502    3.03782871686021    4.65931351191726
H         0.57047620899717    5.40713494889205    4.47756412997317
H         2.91675702982220    6.47884630295686    0.86845259082958
H         3.50840050003948    8.85332162519921    0.72868782941434
H         2.28467444097652   10.52032828912538    2.07823935790131
H         0.44737766114091    9.78825063111021    3.55320386001004
H        -0.17362825700423    7.41757279702338    3.66987887447787
H         1.30892546074987    4.93517426576072    0.29917885246796
H         0.75146375576624    2.55465921327662    0.47147413880458
H         2.19979574749694    0.30194959898981    0.46637200530570
H         2.66286946482754    1.46945140389950    1.69590223252044
H         3.12590920455989   -0.23640676916979    1.86547625605984
H        -2.13339968326599   -1.64580806388383    4.75489119721971
H        -0.98339997235338   -2.86892342326165    4.19016542330613
H        -0.56664400873513   -1.81970324226223    5.54216132695531
C        -2.19522576737629    8.70191020501201    1.21580010152357
O        -2.42578298649689    7.32055182445833    1.47311129177569
C        -1.80363702388746    6.44915209486545    0.67433171932360
O        -1.04500712539601    6.77920400049366   -0.20948478432309
C        -2.19509361577099    5.04443014851047    0.95494328366160
C        -2.97059785747914    4.69816007425131    2.05917645855912
C        -3.41782863291423    3.40048394146244    2.20663992706584
C        -3.06805058240915    2.41996777553904    1.27604480384364
C        -3.72581306011207    1.10236985985698    1.28147731515817
C        -5.12504518838993    1.10020390283045    1.28791722209290
C        -5.82617447292707   -0.07512481854324    1.08855288684001
C        -5.10621634498473   -1.23606535547893    0.86434813574265
C        -3.71681814331009   -1.18586085801400    0.92976635603083
C        -2.89885013671849   -2.34959734470368    0.74045186025019
N        -1.62614550809249   -2.23034881001351    0.91277840193680
C        -0.79830167935649   -3.35108991858961    0.75868273370169
C        -1.16350940363964   -4.56987298366291    1.33962085331463
C        -0.33037685924793   -5.65838489158831    1.16636618725261
Cl       -0.76678458536276   -7.18045581523351    1.88156090899818
C         0.84228549551430   -5.57414216953264    0.43093929200132
C         1.20359950823934   -4.35458895074406   -0.14297152165112
O         2.31873674277542   -4.14846869669043   -0.86554155385991
C         3.20797328542803   -5.22771556335457   -1.09139685557838
C         0.37882582603711   -3.24006991251364    0.03581066226173
N        -3.03186798289426   -0.03677985692952    1.16891751304906
C        -2.25005567815391    2.75842431589535    0.20052970031489
C        -1.82540241366401    4.06241822863946    0.04043079026253
H        -2.50076589247426    8.95041119732516    0.19799062542426
H        -1.13579470628975    8.93617097258415    1.33336419084244
H        -2.79469114757396    9.24519687124641    1.94026978491384
H        -3.24331396792132    5.45564585464473    2.77594966184555
H        -4.05362403556688    3.14713589760193    3.04165630039292
H        -5.64118229556658    2.03830589939432    1.41400829672910
H        -6.90453182508318   -0.08030845451055    1.08225357639655
H        -5.59634199056778   -2.17240318254700    0.65467501451105
H        -3.34864128023630   -3.28554724095982    0.42773674409674
H        -2.05880341461154   -4.65589935988814    1.93225125310974
H         1.45407876192496   -6.45257733308634    0.31628922553898
H         3.60040196516219   -5.62004780384535   -0.15000480707315
H         2.72453909960842   -6.02928717314246   -1.65547242475079
H         4.02327916109825   -4.81205952041930   -1.67970542119491
H         0.65024550655151   -2.30465167953860   -0.42576592563364
H        -1.98658298097736    2.01196781825674   -0.53047360953478
H        -1.22953744766619    4.34744393894812   -0.81237294427916
Cl       -0.44391962187670    0.04435344740229   -0.73485862956541
