70
 energy: -98.877991559865 gnorm: 0.000885248422 xtb: 6.4.1 (afa7bdf)
Ir        0.12881258115367   -0.41020505480368    1.57029646703983
C        -1.89979943781374    1.51876606282567    3.58994612985867
C        -0.57583763275495    0.91441455301350    3.26327214363779
C        -0.16664516884204   -0.36110172829331    3.79184609205430
C        -0.99602847425244   -1.22009211235503    4.68646526851962
C         1.25583122253796   -0.48125485193698    3.61488347951653
C         2.11593828915349   -1.43147304396628    4.36861635146970
C         1.68887771006549    0.61636682781960    2.82487342456226
C         3.10739660127595    0.95453870426882    2.50758040226809
C         0.54900912182152    1.50360621949569    2.61338278490985
C         0.70596803282500    2.90463312376946    2.09043897264625
C        -0.31013246374363    3.33473092628263    1.02728149044344
C         0.03293343116274    4.73540944830619    0.52706248655331
C         0.02467942501916    5.73240569368177    1.68350778071563
C         1.00943448289853    5.30239059316036    2.76771387444652
C         0.68529481922602    3.89667358850823    3.26599715510038
H        -2.70945249666862    0.80562719862019    3.45075299059461
H        -2.10385298660410    2.41177728164875    3.01050869983964
H        -1.88813699531805    1.79630401158144    4.64541462259755
H        -0.66214323004939   -2.25349378238819    4.65900567584610
H        -0.90440659746125   -0.86180657272021    5.71261206908585
H        -2.04527833917970   -1.18455008122969    4.40808505508500
H         2.33673172121844   -0.97561249011361    5.33584888792645
H         1.60810971247829   -2.37319533369772    4.56003855343502
H         3.06404159703646   -1.60899946294068    3.86997705646186
H         3.74886559562039    0.08424960134110    2.61559234648186
H         3.20122623547723    1.33440927558706    1.49199941431733
H         3.45989132684307    1.72638841170980    3.19255100188947
H         1.69222359521019    2.96722834860690    1.62095428646710
H        -1.31960220119430    3.35827781465073    1.43766769250209
H        -0.28493685581622    2.62678303450130    0.19806625539767
H        -0.68896291460685    5.04154699153680   -0.23286482732673
H         1.02033885866679    4.72672305183874    0.05975167395596
H        -0.98078056982256    5.79018690843958    2.10789611484755
H         0.28682705601478    6.72771317461816    1.31883273631113
H         0.97215600304232    6.00426350851006    3.60353732320196
H         2.02381135743977    5.32233471935296    2.36235370451609
H        -0.30011181619554    3.89754392341023    3.73313428684565
H         1.41486416122030    3.59269843641679    4.01919529830055
C         7.05466556697518   -3.29772465578927    2.28065094411880
O         5.87405114179619   -3.62858665250975    1.54732478325882
C         4.77923583753537   -2.91720008659851    1.78298938538615
O         4.71792289861208   -2.01378641629485    2.58570216827259
C         3.63393121083519   -3.37892239884704    0.92269826354407
C         2.30095545148313   -3.73887074562475    1.61455750429215
C         1.56319024094985   -3.05770018563748    0.44709314088003
N         0.35958276857847   -2.30484628983795    0.67544415743465
C        -0.68977537643731   -2.70433175936793    0.03907787412211
C        -1.85951478779525   -1.87659753355682    0.03214188182733
C        -3.03028635413749   -2.19309447658153   -0.65897193105752
C        -4.04823320053021   -1.26045362291203   -0.71572864833086
C        -3.85305297106714   -0.02793033167021   -0.10156001240262
C        -2.66904084765344    0.21264675967250    0.57308569251560
N        -1.69906061852923   -0.69344317403445    0.66709644732243
C         2.86205630900163   -2.28749815789806    0.15498047342637
H         6.80310844455333   -3.07648150583848    3.31867074097934
H         7.70652620927084   -4.16412039900749    2.21371334673392
H         7.53388402848724   -2.42604051035918    1.83279810642748
H         3.98874713319090   -4.17531632207049    0.26975874280902
H         2.09666754511429   -4.79493925239274    1.76601693010873
H         2.17839058895323   -3.18940072033790    2.54041184190838
H         1.38311801033816   -3.78933911714677   -0.34748816452185
H        -0.68194614815284   -3.60649055301092   -0.56529715760751
H        -3.11749984032166   -3.15104192771528   -1.14590457926732
H        -4.96533034442922   -1.47625809952781   -1.24041330370506
H        -4.60770192887144    0.74043142374896   -0.14384034163916
H        -2.49043346876542    1.16653714635943    1.04234582923813
H         3.11135490404830   -2.13404301805128   -0.89044820958860
H         2.88698411423570   -1.33803550748056    0.68469011522014
Cl        0.87129372552513    0.34836117125130   -0.57647124404261
