79
 energy: -126.846287638077 gnorm: 0.000548005704 xtb: 6.4.1 (afa7bdf)
Ir       -0.57293056104099   -0.52941775332752    1.42589847401630
C        -1.80466500306296    1.50368796066202    3.94097054707264
C        -0.71902297667616    0.63158295073454    3.41609634411623
C        -0.63997494084709   -0.78721990095697    3.65313255354102
C        -1.60067549727078   -1.56163908192936    4.49040325163806
C         0.64472475248877   -1.23359879642568    3.21312901681888
C         1.27859974798054   -2.53894996469784    3.53487179433007
C         1.29684926529224   -0.14233605087398    2.56167368848940
C         2.71680982747697   -0.14666367109850    2.11634523243086
C         0.45945961334798    1.03468587523593    2.72650431872973
C         0.91334973629091    2.41199236380734    2.47754343152634
C         0.93346423104129    3.32314685974052    3.53202851630036
C         1.41088496008157    4.60026483146715    3.30604115124158
F         1.42964975219057    5.47494932439295    4.33295077129953
C         1.87120461854986    5.01693800398575    2.06990304752909
C         1.83651030611611    4.08847892302866    1.04371101793551
F         2.27118655924221    4.46190345183374   -0.17661846100067
C         1.37011216098083    2.79992780914517    1.21928728177179
H        -1.66355784344743    2.53240901008776    3.62634339769013
H        -1.79135460715654    1.46342183272302    5.03052805381311
H        -2.78294006657050    1.15599277583366    3.61444904176431
H        -1.56406198409495   -2.62108615838661    4.25281497013990
H        -1.34053628452619   -1.44190203879175    5.54277026013867
H        -2.61595889188821   -1.20169026666465    4.35087251027325
H         1.82917027764476   -2.42465883232550    4.46967846896759
H         0.53986788527597   -3.32242288305195    3.67330372310618
H         1.98359874212462   -2.84088905087678    2.76543397432248
H         2.93519742869213   -1.03237521380733    1.52506139614539
H         2.94615112077210    0.73563459989086    1.52745829152449
H         3.36403672555247   -0.15550544306020    2.99396179623094
H         0.61071771129265    3.04488394342758    4.52174224090159
H         2.24163006959993    6.01615305619405    1.91419428524895
H         1.33628679291193    2.12076177605107    0.38096758503180
C         4.65018217291708   -6.01865575394106    1.62985888462090
S         3.49426230965086   -6.45223232445207    0.30410356866783
O         4.15105902240420   -6.27104249273753   -0.96826051030141
O         2.93307671471038   -7.75317373473114    0.58188112407175
C         2.18093984272221   -5.22672251506018    0.44544941213177
C         1.02345105424130   -5.55094458229167    1.12862496274619
C         0.00835002927523   -4.61727096570001    1.23193508525969
C         0.16516795815936   -3.35519603365305    0.65219046165698
N        -0.85569046259062   -2.39626663472638    0.73861477172091
C        -2.08631629540665   -2.73997675778258    0.55354634811549
C        -3.10221970557215   -1.72988046474661    0.55382171372565
C        -4.42730599719497   -2.08346982270315    0.37819696583350
C        -5.37691588148439   -1.06164044378942    0.33897574276906
C        -4.93056627470108    0.22698255246371    0.29341631893882
C        -3.53473347100523    0.54118514948746    0.32122515963145
N        -3.17634354534132    1.79271208498029    0.01280823250465
C        -3.97570371775690    2.62932043665773   -0.87184726063627
C        -4.37409540086641    3.93318825181536   -0.18564351721181
C        -3.10800044280808    4.67627288415855    0.23213713854470
C        -2.25646492004740    3.75709207371136    1.10263453843921
C        -1.94158201251035    2.44907877244351    0.37076658307313
N        -2.65361219672010   -0.44044626215690    0.64086508759400
C         1.34574781285479   -3.03500205159605   -0.02049565000841
C         2.35054766697804   -3.97951172457946   -0.12916961017408
H         4.11554126105635   -6.06442240927493    2.56912743297247
H         5.45034150596410   -6.74849443283550    1.61296432925533
H         5.03654394139288   -5.02815352418237    1.43014778850159
H         0.93043386152637   -6.53672170372317    1.55579937588810
H        -0.89347360190618   -4.85670656041576    1.77424639816171
H        -2.35674752280647   -3.76027349724013    0.30375946475397
H        -4.70793203119380   -3.11994534139920    0.30942659838864
H        -6.43160797698784   -1.28524741351720    0.33095636091409
H        -5.63684681601259    1.03938377090358    0.27950995833626
H        -4.84223501443821    2.08955961764444   -1.24605587855013
H        -3.34116372680605    2.86757685124072   -1.73372272420336
H        -4.98592775596792    3.72207133310932    0.69311801252322
H        -4.96385231325780    4.53901065605442   -0.87357892166221
H        -2.54540040642571    4.97080656475204   -0.65592847236673
H        -3.36193531602631    5.58316388092173    0.78216857814504
H        -2.80848689762280    3.53570099953685    2.01683173884650
H        -1.31982778964871    4.24559636344030    1.37269653573491
H        -1.36040553717110    2.65781797094654   -0.53218395489875
H        -1.35468780135863    1.78797202795938    1.00429079595202
H         1.44683591284239   -2.06106270904831   -0.47480623094937
H         3.25788284019504   -3.77011152586162   -0.67279748514721
Cl        0.11808229638746    0.08774619796235   -0.76768922539056
