58
 energy: -101.207034917900 gnorm: 0.000426432948 xtb: 6.4.1 (afa7bdf)
Ir       -0.24318472437888   -1.07362036861129    1.46077551852981
C        -1.89800116234551    0.54149342374751    3.94296623559928
C        -0.60786245291049    0.04179132570147    3.39596864044048
C        -0.02503850525421   -1.23410476931817    3.68633453175646
C        -0.57723106082712   -2.23944062615417    4.63559932703270
C         1.29705470830741   -1.26274626938845    3.11006368327028
C         2.34053397641444   -2.28114750485453    3.41359812600942
C         1.50174105282898   -0.03937483680587    2.40881667285443
C         2.78586323447115    0.42593073718562    1.82251875099971
C         0.30161267955890    0.76588403673878    2.55879369870575
C         0.19892480504763    2.19312703469906    2.20668240455734
C         0.00323041211495    3.12852886189766    3.22123522216287
C        -0.05008276873382    4.47058606504613    2.89522939510812
F        -0.23552809565759    5.36841973381128    3.88397008871367
C         0.08041619460147    4.92861818703821    1.59630809979950
C         0.27079482809258    3.97437336994420    0.61210932594055
F         0.39798017830914    4.38241480940905   -0.66656086561263
C         0.33087498089015    2.62137006345446    0.88814804774664
H        -2.21110564086890    1.45427622864165    3.44444440933767
H        -1.77100254057440    0.75592996799051    5.00459200232362
H        -2.68271990379002   -0.20628807513684    3.85460209157709
H        -0.22415385166995   -3.23877560538156    4.39718892820243
H        -0.24186701073905   -1.99559158525687    5.64435815540537
H        -1.66327938474946   -2.23112286174428    4.63064039894577
H         2.81156293983825   -2.01999544048595    4.36217407565352
H         1.91293550200936   -3.27501771063831    3.51234539124624
H         3.10983790323968   -2.30028840195305    2.64832855053037
H         3.31921783937228   -0.38987820361220    1.34211722197254
H         2.62141487542558    1.21537370403063    1.09565574506016
H         3.41521250900365    0.81886610906744    2.62201950857247
H        -0.08343232233730    2.82910339007055    4.25271700666926
H         0.03717177313653    5.97905237158684    1.36210077667174
H         0.46052632989153    1.91411969007868    0.08348553715376
Br        3.83476434389191   -7.23804429976632    1.18205135827491
C         2.46951828546072   -5.89387484248656    1.07246980316373
C         2.79033459747977   -4.62934813645435    0.59679804609675
C         1.80846029367061   -3.66132019018807    0.52672260020762
C         0.50006398660492   -3.96170978691328    0.90794717436970
N        -0.48759132778390   -2.97445658101199    0.79286934550417
C        -1.61169292443887   -3.25085776162679    0.20725096620128
C        -2.55945701388563   -2.18561271657345    0.09033030414178
C        -3.77873487757438   -2.27122492782170   -0.58747838978787
C        -4.58147968182093   -1.15311854791081   -0.67958706326094
C        -4.13297357814072    0.03020825617490   -0.09271582093499
Br       -5.17695032455215    1.61883612041824   -0.17526298793817
C        -2.91255513287432    0.05360283863041    0.57061141515812
N        -2.15036480407797   -1.02669582074252    0.66793428168818
C         0.18922435607371   -5.23737471876009    1.38240942297732
C         1.17611652623233   -6.19958930061097    1.47361826235993
H         3.79761620435989   -4.40966445165041    0.28139979283454
H         2.02863207328500   -2.67967083469135    0.13575611895163
H        -1.80586169276774   -4.22589334971819   -0.22349213480358
H        -4.07723266952212   -3.20414089724754   -1.03880851209435
H        -5.52713815835879   -1.18465216961552   -1.19715135145980
H        -2.54995965105317    0.96508041118936    1.02220742380951
H        -0.81496417940674   -5.46472951265797    1.70497108167516
H         0.94448732063787   -7.18349857469714    1.84849161892232
Cl        0.43113873060032   -0.54417505611557   -0.76312745897461
