75
 energy: -106.325310033599 gnorm: 0.000258553594 xtb: 6.4.1 (afa7bdf)
Ir       -0.45067874747050   -1.01152842145004    1.38325918153054
C        -1.90217919463665    1.67882463312565    3.15279695405856
C        -0.86497497608713    0.62945250193130    2.96250308794778
C        -0.96121147236525   -0.69518280820694    3.53940305024298
C        -2.11195311017880   -1.18530023410361    4.35173480913581
C         0.34178120209314   -1.28912282999933    3.49805548899852
C         0.77012332950633   -2.47317107850188    4.29278108492389
C         1.18895180349471   -0.42150399846018    2.74040634823501
C         2.66408183141516   -0.54247419433699    2.56295867625004
C         0.44061404885847    0.79019197132966    2.44623452728173
C         1.07026800492754    2.03045750941741    1.91230584343044
H        -1.86719347381125    2.00475310183113    4.19372325502316
H        -2.90047869475080    1.29629248577329    2.95925525478606
H        -1.72614576382969    2.54176093543970    2.51946236059301
H        -3.05623094638421   -0.84079140175445    3.93968158777714
H        -2.12519578740401   -2.27031397137629    4.40387081070904
H        -2.02577281534061   -0.79751209642872    5.36763007440287
H        -0.01082558986646   -3.22696990006584    4.35343961942949
H         1.68273478429544   -2.91367057664831    3.90165566118243
H         0.97679341375090   -2.13402014733634    5.30936282222198
H         2.95760364569726   -0.22593096710072    1.56434320436644
H         3.00501962720795   -1.56033437507799    2.72676544100318
H         3.16532207729353    0.10811467445132    3.28043307715873
H         0.33239301525861    2.80806915578082    1.74377363715830
H         1.58590235942372    1.82685685766272    0.97596225958700
H         1.80729663276279    2.39364575649037    2.62880977671801
C         5.55423762477865   -5.83845113846228    1.87444225592110
C         5.15732394948827   -5.60932168855497    0.41928415757844
C         4.14861562188127   -4.47401034357061    0.23373841303046
C         2.78611308276627   -4.77225687551303    0.85824817447344
C         1.75923915193012   -3.70512048969330    0.48651719786939
C         0.42064733520319   -3.97061871288020    1.18692449595663
N        -0.56175794326855   -2.96754905502882    0.85779323167194
C        -1.55394351202942   -3.30558493997637    0.11423998539642
C        -2.50578009483405   -2.30505781001093   -0.27701984953040
C        -3.60739428519787   -2.61771305107356   -1.06897556700527
C        -4.47592366146646   -1.60493323995877   -1.43152499195287
C        -4.17689480609701   -0.31755611926948   -1.02501680858347
C        -3.03874164376935   -0.05965911935173   -0.25341811561217
C        -2.74894297928083    1.35888601866861    0.01658640947881
C        -3.76245677553325    2.19350297284708    0.49469745198441
C        -3.54930392171848    3.55131485332849    0.61111349063627
C        -2.32748830712622    4.10443017917044    0.22767973317652
C        -2.14698651091648    5.57472822952001    0.34036195324918
O        -3.01914819545451    6.34086844509693    0.68781672986692
O        -0.91015608426353    5.96212904560018    0.01913537831602
C        -0.63133380883580    7.35773843288424    0.08460476895677
C        -1.31984131178400    3.27536478593818   -0.25930560136233
C        -1.52597183398229    1.91095202665890   -0.35617176256348
N        -2.23392602157890   -1.04809409923430    0.15554828516331
H         6.32920816052915   -6.59961052388980    1.93488148333213
H         5.94359793438935   -4.92219610681580    2.31295834735922
H         4.70655311333617   -6.17670157788198    2.46430181407657
H         6.05517285761397   -5.37055680461059   -0.15599380390274
H         4.74250738689856   -6.53291187154029    0.00858902743821
H         4.55633446377930   -3.55809042570112    0.66653087723852
H         4.01653481676237   -4.29996160413747   -0.83666920593142
H         2.88552735613819   -4.82052133131808    1.94341120951333
H         2.44131446448152   -5.74846556386801    0.51115860481176
H         1.60413470899533   -3.70064396828205   -0.59319542698943
H         2.12886692230035   -2.71946894236822    0.76616787324099
H         0.57839522809340   -3.96456142665923    2.26521984867209
H         0.05371358184796   -4.95930980814951    0.89295151963175
H        -1.67916824360354   -4.32357095698311   -0.24146567865144
H        -3.76425711096517   -3.63548205551330   -1.38607867791787
H        -5.35012900491674   -1.80647209406797   -2.02974159063631
H        -4.80125446326873    0.51087099998476   -1.31847416848968
H        -4.71306472156113    1.77466345148230    0.78799679814226
H        -4.32002026459498    4.20696116978925    0.98596840263848
H         0.39388142270334    7.47308736667342   -0.25579605652615
H        -0.74253735937377    7.71673913768857    1.10939069585351
H        -1.31797559286670    7.91115419369620   -0.55842947428189
H        -0.38340746938499    3.70608172839533   -0.57511448073375
H        -0.75120873975110    1.27708144583854   -0.75661746883341
Cl        0.73446827964711   -0.68615432127396   -0.66705477935805
