85
 energy: -112.798851092105 gnorm: 0.000235185496 xtb: 6.4.1 (afa7bdf)
Ir       -0.50076898261199   -0.48594359131560    1.42659699757700
C        -2.07809904737148    1.79815331554908    3.62735284971946
C        -0.95418356851048    0.89423134151533    3.24147700522448
C        -0.95049896257750   -0.50475658147998    3.61639033632224
C        -2.04815396067888   -1.18381451505184    4.36340536206238
C         0.37695938638680   -1.00698603708243    3.45413987611384
C         0.87411019504641   -2.28317471211719    4.04232452884125
C         1.14531724574869    0.00983196149585    2.80490484814925
C         2.61898478537592   -0.03396401501082    2.56067633093062
C         0.32769554604102    1.21637577019184    2.73229941519801
C         0.92006053073084    2.56477327553915    2.42728792578138
C         0.15413625483855    3.42785286963334    1.41995593336459
C         0.92768179155353    4.71707199303993    1.15436337232838
C         1.13763816897838    5.49513056620062    2.45118817712931
C         1.87248552260833    4.63639925259982    3.47696835499156
C         1.11087328087599    3.34091114744516    3.74215650273240
H        -3.03632470106232    1.39775467138297    3.30292877631430
H        -1.96179761590058    2.79691258017660    3.22373383511925
H        -2.09898284671116    1.86704548246940    4.71609185193759
H        -1.96733040215595   -2.26392232935628    4.28253375200246
H        -1.98428408144928   -0.91621766616505    5.41888842412315
H        -3.02312512669185   -0.87417171275271    3.99668266576410
H         0.20678985186424   -3.11576627248920    3.83155994105247
H         1.87628550283571   -2.52368791881610    3.70020369391043
H         0.91428045769645   -2.16061305343703    5.12578180992113
H         2.97925056165907   -1.05741393006250    2.51416239714179
H         2.87176768566668    0.45988394174317    1.62534673924793
H         3.14122783101690    0.47821513170544    3.36924862022264
H         1.91157295793186    2.39495013961876    1.99761209682709
H        -0.83229855249996    3.69092132122919    1.80257803807768
H         0.03336626642330    2.87342128067944    0.48828527427531
H         0.38125293047142    5.33198731066402    0.43620944782465
H         1.89748672880196    4.47793023329216    0.71197642734758
H         0.16877427149771    5.79702617188325    2.85671653921980
H         1.70983717043603    6.40336066955828    2.25078869777503
H         1.98892359277027    5.19022405452079    4.41083107410725
H         2.87173666648651    4.40335274996109    3.10206469667399
H         0.13895702351251    3.57426119441003    4.17821017784178
H         1.66167355902142    2.72715755053852    4.45745899168979
C         5.31724246449541   -2.26401537965379   -3.37392861546116
C         4.10264812492613   -2.75003108222757   -2.59015241490702
C         4.35883905407227   -2.72284908159266   -1.08408635184808
C         3.23080770605271   -3.34616479358014   -0.26052063490480
C         1.93609225191566   -2.53947894901873   -0.32826976840014
C         0.88506786810559   -3.11346550017577    0.63144903942207
N        -0.32191081200572   -2.32566832765578    0.60925207426885
C        -1.35690670544650   -2.78438260205940   -0.00670750039959
C        -2.50368737918870   -1.93521795063155   -0.12323302926231
C        -3.69078711443395   -2.33176212993152   -0.77486152805282
C        -4.71820291641192   -1.44255304046249   -0.88995577252744
C        -4.54305156945955   -0.11816169655522   -0.42351829933601
C        -5.52354822094826    0.86551980856711   -0.57275536381561
C        -5.30259957277570    2.17316283138586   -0.16892163730602
O        -6.31066443015691    3.03684908802610   -0.35339883751460
C        -6.16309982939541    4.40325541464021    0.01901211773973
C        -7.47119470004245    5.11150672689127   -0.29626524916240
C        -4.04440600427993    2.51164987615328    0.38204937670878
C        -3.08332014813094    1.55755623241503    0.56483519053082
C        -3.30120652955531    0.21679844168686    0.20035909990699
N        -2.34248607278495   -0.71379096279221    0.40241331509801
H         5.57682695337011   -1.24732712043062   -3.08588738830791
H         5.11273045481911   -2.27435801513085   -4.44241724161504
H         6.17821384802222   -2.90248213437702   -3.18516899982058
H         3.25000138746226   -2.11388425161319   -2.83222197384190
H         3.86123359301954   -3.76981817413336   -2.89931270294994
H         4.51186638671587   -1.68920333896630   -0.76702734810899
H         5.28159834596054   -3.27096632112131   -0.87800687111654
H         3.55940191668351   -3.41120719166457    0.77916162424512
H         3.05007339515837   -4.36358999911501   -0.61363099500943
H         2.13287038850595   -1.50011651960614   -0.06705570445932
H         1.53436894424542   -2.55462828303424   -1.34094188041997
H         0.66094314037734   -4.14646732617668    0.34635266162636
H         1.29232009055298   -3.10908351340462    1.64213609865732
H        -1.35859513570841   -3.76744017610860   -0.46558531782093
H        -3.76418496915550   -3.33468533008358   -1.16243202690011
H        -5.65149520375759   -1.71945200714392   -1.35458411554443
H        -6.46808688192871    0.61656485590335   -1.02924645221320
H        -5.94361956492594    4.47374381850028    1.09154009198771
H        -5.34147825210451    4.85622109625242   -0.54952096305863
H        -7.69266403457083    5.03301603627236   -1.35698883929303
H        -8.28608111397700    4.66042395568858    0.26304145917532
H        -7.39171433733864    6.16044848826355   -0.02665000057268
H        -3.83017800354270    3.53276798364623    0.65240145030292
H        -2.11051460766782    1.82616040539626    0.94221678901047
Cl        0.26452087717744    0.43797449687542   -0.63002234960706
