87
 energy: -133.546006085897 gnorm: 0.000532840049 xtb: 6.4.1 (afa7bdf)
Ir       -0.51662141034981   -1.20627717345133    1.28754062636648
C        -0.92625216140983    0.31108851779700    4.30494876218009
C        -0.00370531422546   -0.28377653497814    3.30067324200877
C         0.38741157682070   -1.66143289014887    3.27725347343910
C         1.39719146767265   -1.81705701065072    2.26389708553331
C         2.28847396176703   -2.99876490207056    2.09458541386199
C         1.61206189600286   -0.53672819358226    1.65251908451762
C         0.73927158430152    0.41451775608448    2.28631347297610
C         0.84770613669021    1.86795050512140    2.11566736893748
C         0.99224618590852    2.69747253355962    3.22639727061964
C         1.12544167473756    4.06252445015208    3.06872126484203
C         1.12237387991900    4.64178123644153    1.80095805213227
C         1.25706138253488    6.09686295536072    1.63873351982983
C         2.05664898814435    6.62817545798116    0.62868630332352
C         2.18560417765717    7.99694076869080    0.48015908643895
C         1.51316291264347    8.85710022974522    1.33312651636395
C         0.71279519638126    8.33964751359093    2.33869383392413
C         0.58801191115327    6.97131353808812    2.49317314282925
C         0.99129899543128    3.80669650916777    0.69156879719050
C         0.85772103162870    2.44166055681369    0.84396868503414
C         2.68966599251837   -0.21867244308806    0.67766063771244
C         0.00153450119909   -2.69018573221572    4.28493878062444
H        -0.41780645590995    0.35639919440163    5.26895419079587
H        -1.81443775861870   -0.30327409791462    4.43421438658016
H        -1.22551280416663    1.31378008615230    4.01666343462320
H         3.17328826284830   -2.85380681211342    2.71654993261006
H         2.61203474035992   -3.10620354388930    1.06308120817359
H         1.80118387343396   -3.91706615615355    2.40796713051805
H         1.03244296177324    2.27102257627911    4.21595365405362
H         1.25644007468181    4.68850118667087    3.93853022469806
H         2.59799192232554    5.96480656245325   -0.02997579887473
H         2.81455233746173    8.39571791537492   -0.30264343841349
H         1.61321669869391    9.92612626540913    1.21523392525867
H         0.18384410104031    9.00639698885853    3.00420521574683
H        -0.04938407260951    6.57652321173488    3.27078607744515
H         0.97530998804042    4.23714563934220   -0.29910296509806
H         0.72422505852912    1.81297197246415   -0.02316463599381
H         2.35147993353145   -0.38263066409052   -0.34538811444490
H         2.97685076785942    0.82654475914638    0.76895471633663
H         3.55504810477237   -0.85328795589565    0.85242810200746
H        -1.00335454567662   -2.51675012088579    4.65944108586806
H         0.05923666988136   -3.69123163512103    3.86509639759839
H         0.69063816820227   -2.63728089760905    5.12845505419488
C         6.35405522616344   -6.43706722207840   -4.24960638240310
O         5.16835734653208   -5.68537593642273   -4.40352876114607
C         4.28021872887208   -5.64523393788948   -3.37539150935220
C         4.45215647572866   -6.26859415363449   -2.14256761567023
C         3.46996508992636   -6.17016217701375   -1.17400345426866
C         2.30090529336137   -5.44867679467930   -1.39691631431066
C         1.24671945429683   -5.37469564913723   -0.37704535092616
C         0.95358406201122   -6.47689089308420    0.42964679801416
C        -0.06398805011284   -6.42168576146881    1.36587561447823
C        -0.82491542826731   -5.27572572986742    1.50883911954476
C        -0.53183147665895   -4.16448848937154    0.71855633213478
N        -1.30503786902932   -2.99575793277316    0.82268766325681
C        -2.58743231076302   -3.08813876404388    0.67054062513163
C        -3.35045579906517   -1.88020663533864    0.71125084022525
C        -4.69966563144743   -1.82072830481210    0.35688707624203
C        -5.32672766764861   -0.59430587727014    0.35815666048654
C        -4.59267135579204    0.55047198927570    0.68805856566024
C        -5.30681138405094    1.76534786073704    0.76579261128766
N        -5.96544509082498    2.70113217488724    0.84926255054018
C        -3.22135258336092    0.42778983790247    0.99735226483178
S        -2.15725689392801    1.74226120648789    1.39613266412112
C        -2.76920675127307    3.18942229137855    0.49112272082026
N        -2.63738458197754   -0.77869504064000    1.04016734059777
C         0.50442093041944   -4.20892945893494   -0.20810154677895
C         2.14388987226496   -4.81420334559675   -2.63130712700141
C         3.11218801344495   -4.91197050258590   -3.60434053964901
H         6.97372222328905   -6.04354151981630   -3.43833625296524
H         6.88812310557687   -6.33670335391183   -5.19265614347098
H         6.13508194304716   -7.49346261462563   -4.06742085475349
H         5.34513297333556   -6.83358751035052   -1.92775730999825
H         3.63352935437109   -6.64986368398005   -0.22072112422104
H         1.51257126279889   -7.39053574077248    0.30419132962216
H        -0.27717439122384   -7.28317094076640    1.97973761660340
H        -1.62302307718396   -5.22552580059198    2.23310035248808
H        -3.06502258218735   -4.03517175655652    0.44751277376523
H        -5.22675571551289   -2.72001367595634    0.08630315797983
H        -6.37425949781634   -0.49878265751924    0.11694429717288
H        -1.90043865164795    3.83722741864745    0.40474521335786
H        -3.55685259088878    3.69386686458074    1.03959631965190
H        -3.10460787181791    2.88857926685969   -0.49550810593429
H         0.70369441103482   -3.33388764152355   -0.80764145268107
H         1.24168719971062   -4.26062768455666   -2.84109433109644
H         2.98858526808754   -4.43357656019075   -4.56311586573843
Cl       -0.43218957416644   -0.67484128590495   -1.01799867051437
