81
 energy: -117.142487415023 gnorm: 0.000395348672 xtb: 6.4.1 (afa7bdf)
Ir        0.82789215460948    0.31056811325693    2.15043296009061
C        -1.51524810053076    2.02268211184914    3.83224796004359
C        -0.21602743592814    1.30126335007819    3.80112116525631
C        -0.02261000696899   -0.06437146239503    4.17497180976481
C         1.38922461913286   -0.31680574896604    4.19039061294548
C         2.06847219710744   -1.55732967403388    4.64246040337221
C         2.08265644997791    0.92554943661271    3.89159400488802
C         1.09905664330582    1.92497529223956    3.65492854608277
C         1.34303796824163    3.34515058318758    3.41492901684238
C         2.15312387282784    4.06688407207803    4.29266531852660
C         2.36447543540202    5.41585233902681    4.09600996775341
C         1.79917961297979    6.07949580499560    3.00717732784348
C         2.04700711893471    7.51161172966221    2.79101555296965
C         2.29779139263631    8.00227942058174    1.51074213641851
C         2.54607841690717    9.34768065833039    1.31028161822285
C         2.53848806850754   10.22533009892172    2.38251513304903
C         2.28212342767491    9.74919184709077    3.65833925197568
C         2.04253011034144    8.40282747537932    3.86288184070884
C         1.00196903395711    5.35020140915654    2.12471793629125
C         0.76817782151724    4.00661429576108    2.32954040010943
C         3.55526753065604    1.11415558774518    3.94001346017900
C        -1.10005649275529   -0.98214505176807    4.64526803261901
H        -1.81843415774730    2.14404569710193    4.87323584718107
H        -2.29644173636452    1.45786831102014    3.32773822266681
H        -1.43197339935750    3.00858200979421    3.38419037044102
H         2.45122138292503   -1.39474024749292    5.65137861337300
H         2.91900791081821   -1.79735843963957    4.00747600385429
H         1.38556078769312   -2.40081069127368    4.67054649347257
H         2.59041502698826    3.57279162985672    5.14581423677150
H         2.99466138990190    5.96118002356054    4.78184044060096
H         2.32408838733084    7.32194873701833    0.67203915227943
H         2.74888097477901    9.71406681533132    0.31458374643722
H         2.73177760725719   11.27591857328245    2.22361764197645
H         2.26954781454998   10.43069729505744    4.49638126755299
H         1.82779346397305    8.04202270327747    4.85799103865568
H         0.55103332769599    5.84775993949296    1.27986687272276
H         0.17220740073362    3.45179352226807    1.61899824313281
H         4.07091058129273    0.28345203077845    3.46364825952036
H         3.84184744275460    2.03906415883085    3.44702928872524
H         3.88223809485947    1.15383338201981    4.97959719983174
H        -2.03274571074130   -0.78944359091853    4.12351367701007
H        -0.83026404404947   -2.02423535675964    4.50708614671745
H        -1.26633691811800   -0.81283602871326    5.70918118202847
C        -4.80258742347632    3.62526405909814   -0.37863300340472
O        -3.65253284564681    2.91101600752372    0.04412913443990
C        -3.53193942585480    1.61549646871971   -0.28422675517958
C        -4.45498408589418    0.86456497579363   -1.01359103065558
C        -4.16957412633316   -0.47226890081647   -1.26195707824930
N        -3.07805394356193   -1.08665958531586   -0.85858411744052
C        -2.19003442393320   -0.37448008415073   -0.16137614831498
C        -0.98572172973341   -1.06422198875736    0.25878547345942
N        -0.55384180180030   -2.15158409977112   -0.10960230070048
C         0.63241083787366   -2.77020528590119    0.31605671991908
C         0.34175633370025   -4.14360279369994    0.92879125537792
C        -0.39743548524412   -4.01761319204009    2.26424718415497
C        -0.71264413925485   -5.37267445705795    2.83565319412677
C        -1.94390109169895   -5.96993453456324    2.59775434568724
C        -2.22799931707049   -7.22575261222715    3.10549686946593
C        -1.28127488267550   -7.90245805141797    3.85650506846343
C        -0.04845527942944   -7.31763712785428    4.09422220090831
C         0.23235396811881   -6.06139894138447    3.58615368458291
C        -2.37361589614572    0.96414425442028    0.15644318850148
H        -5.71206832971259    3.19367150046406    0.04606892830879
H        -4.87553035988934    3.64630587595849   -1.46874348584563
H        -4.66864682705286    4.63717109946450   -0.00296081844084
H        -5.37096526386201    1.29293506368496   -1.38373269295450
H        -4.86487248587914   -1.08380387572668   -1.81984831154849
H        -0.32759318084640   -0.42338623272869    1.07116755681438
H         1.16415643757782   -2.10737585432083    1.05027239157285
H         1.26579840272628   -2.89973639900416   -0.56514989792457
H         1.28464664320073   -4.67035007586933    1.07731012321587
H        -0.26240648342231   -4.71828268332866    0.22685213516967
H         0.23704532644111   -3.46373399774123    2.95873895998428
H        -1.32253879195641   -3.46078176464771    2.10760724467177
H        -2.68682695762189   -5.44834536242555    2.01193015701497
H        -3.19054065307874   -7.67812428545423    2.91589000557599
H        -1.50335361380595   -8.88177977836001    4.25479581238023
H         0.69452448643204   -7.84242042238533    4.67734347835985
H         1.19708245622023   -5.61344144735861    3.77686102533938
H        -1.63309865484069    1.51951037649283    0.71440305062192
Cl        1.94287314179381    0.76021498984822    0.26145605164048
