80
 energy: -119.183098200702 gnorm: 0.000381084332 xtb: 6.4.1 (afa7bdf)
Ir       -0.82266280147978   -1.12112715063220    1.33291974915128
C        -2.05515176822585    1.27242258009584    3.57952229234975
C        -0.97759509606328    0.35491719260921    3.10625058433956
C        -0.90226769071621   -1.02569342404214    3.54763792949721
C        -1.86488578351031   -1.65981930698129    4.49413269316450
C         0.38880933842412   -1.53405097426048    3.20034922319530
C         0.98732049641546   -2.79817157842589    3.71061902731398
C         1.03699211766622   -0.54581253603529    2.39760383235785
C         2.45605118881550   -0.59624483054551    1.93740918558959
C         0.20738492236897    0.65463165719531    2.39197661494281
C         0.73866788183771    1.99079872457816    1.94812766257565
C        -0.14465264297385    2.77173724465287    0.96993254124657
C         0.56533981151603    4.05477586536496    0.54535615300616
C         0.88302014843030    4.92006741042088    1.76231372228125
C         1.74081093278878    4.14518768286500    2.75909248411355
C         1.04251017672329    2.85624916219325    3.18391842672233
H        -3.04168111001307    0.84868270879669    3.40237152347792
H        -2.00523409712517    2.24424757188786    3.10310778056649
H        -1.94027262419469    1.40770574400398    4.65576761667080
H        -1.81100243643664   -2.74356069635566    4.44337850254309
H        -1.61874286286201   -1.35596509968955    5.51222881256896
H        -2.88407088194770   -1.34640861033844    4.28535481154972
H         0.23178289123117   -3.56269415621712    3.86867414812047
H         1.74475264444770   -3.18734117102890    3.03655371724028
H         1.46118930806057   -2.58873878088220    4.67047094249864
H         2.82727632579951   -1.61655908394137    1.93495821202928
H         2.55417836831798   -0.18853800259096    0.93391879961460
H         3.07691334388556   -0.00367314322071    2.60967925263892
H         1.68606110713833    1.80845805330450    1.43259137665205
H        -1.09376874600466    3.04171056088497    1.43401257806044
H        -0.34362377934044    2.15444499968883    0.09245023273922
H        -0.06580806806869    4.61017104228133   -0.15133199233664
H         1.49199431506025    3.80577037285807    0.02343916376915
H        -0.04836754727768    5.22727827559565    2.24440680463090
H         1.40647050198340    5.82515823394633    1.44791276191522
H         1.93727719855011    4.76203819032161    3.63863788355233
H         2.70256829768739    3.90757208645381    2.29851737248135
H         0.11518271467260    3.10297036530802    3.70130628356968
H         1.67718027609562    2.30156492841892    3.87779799536996
C         5.91389674446922   -8.06225144454045    0.77266148686088
O         4.66831124511852   -8.43200004144097    1.33043079495349
C         3.64145983243769   -7.55639370596132    1.28030527076756
C         2.43255910830912   -8.02297747662204    1.85760163632150
C         1.31920925102303   -7.24168468125615    1.87068106650215
C         1.33755284334967   -5.94585772771530    1.30103664850218
C         0.19974278546351   -5.12733874072387    1.28340905579807
C         0.25102294733360   -3.85952937196612    0.73476154020489
N        -0.87279384012582   -3.03314364003509    0.71630805105475
C        -2.03239504748763   -3.52042826365402    0.39333156360460
C        -3.13484025182009   -2.61545971974108    0.34527696604601
C        -4.43155517606054   -3.00866729522643   -0.04952098612645
C        -5.41555751893313   -2.06816218934202   -0.13883529947909
C        -5.09710569280209   -0.71106093439912    0.09875036106634
C        -6.04458121800504    0.31739702007889   -0.05131264301543
C        -5.67595208861940    1.62586114109407    0.13275934793800
Cl       -6.83578181017466    2.89585359706450   -0.06698093561172
C        -4.35019955266384    1.95903388485481    0.46125801030701
C        -3.41976370278987    0.97273179419775    0.63493797031600
C        -3.76209344893433   -0.38395121955983    0.47725342591472
N        -2.82791196991713   -1.34676301563172    0.65545236962404
C         1.45915863600133   -3.38042846959237    0.17938844754363
C         2.56837292315092   -4.17357375689656    0.16577641752263
C         2.54927775696266   -5.47217484251425    0.72666567277402
C         3.69010045348134   -6.29391677059550    0.72969744857231
H         5.82091887275603   -7.84337663539215   -0.29458147651942
H         6.33841819990191   -7.19904790445095    1.29262286473467
H         6.56318325503482   -8.92457813931643    0.91038695624339
H         2.43308745951915   -9.01458723714904    2.28106208071199
H         0.40445999176245   -7.60688795035250    2.31171973839823
H        -0.71057114613913   -5.48785669188931    1.73885917225540
H        -2.14892686832733   -4.55511100691908    0.09423320336150
H        -4.61934429729903   -4.04723044759428   -0.26737857411222
H        -6.42453855836158   -2.33499202304819   -0.41171873283459
H        -7.05529430635237    0.06425142600644   -0.32899932414694
H        -4.07939611784015    2.99697660169844    0.56492951028102
H        -2.39050244452494    1.21339199239997    0.84441062672291
H         1.46384714562257   -2.39839149549712   -0.26600086193575
H         3.48335690308322   -3.81545888344888   -0.28134927024509
H         4.59546368030139   -5.90945211951154    0.28756858922021
Cl       -0.31849334974422   -0.43306572396555   -0.89235489184511
