72
 energy: -112.610111345754 gnorm: 0.000401404610 xtb: 6.4.1 (afa7bdf)
Ir       -0.53942150325088   -1.03472495941211    1.39338332571020
C        -1.79101707364656    1.01666705076184    3.85221298483229
C        -0.63780325504539    0.33657256410291    3.19849772206173
C        -0.18423253079872   -0.97262704507690    3.59524125647801
C        -0.76944223216163   -1.78192238485432    4.69986692860455
C         1.08818841941364   -1.21625846316711    2.96656013752874
C         2.00414577996405   -2.33781493867547    3.31070138368975
C         1.36341850081944   -0.12159446318558    2.10242143619884
C         2.63344445709173    0.11479977798608    1.35895297608089
C         0.28558435576361    0.85429188995624    2.24128931166271
C         0.37860224657720    2.24706318398738    1.68177278918933
C        -0.85017526231245    2.71731130017293    0.89538676442596
C        -0.57800807241172    4.09584963004929    0.29886061590315
C        -0.24700000584360    5.10050219332871    1.40033111169186
C         0.95323510748670    4.62731252033406    2.21646323707377
C         0.69324948712059    3.24517366345761    2.80920871162404
H        -2.64242455186133    0.34635923614714    3.94787553145310
H        -2.09644557918825    1.91041146074431    3.32084242518550
H        -1.48764562945443    1.30582680350808    4.85939905629865
H        -0.51955360149769   -2.83350173502478    4.59382480090163
H        -0.35960401312803   -1.43285556235855    5.64849800952604
H        -1.84950750448559   -1.67529548688201    4.74069639885786
H         1.45444384484113   -3.24734131176989    3.53746950435854
H         2.70801360036697   -2.54269689229193    2.50963771968746
H         2.57196237208575   -2.05757040517900    4.19866669956866
H         3.23681061669968   -0.78665655884207    1.31731420471217
H         2.43287662616036    0.44903009108640    0.34325559614199
H         3.20812785904369    0.89066413272401    1.86490683596444
H         1.22004924872001    2.26133731320977    0.98302142071844
H        -1.72332451270724    2.79051943982881    1.54338168995870
H        -1.06366458465920    2.00252579528550    0.09940998136475
H        -1.45281048741840    4.43355791170432   -0.26016628032124
H         0.25784271869630    4.03430660276448   -0.40160389028432
H        -1.11092618322668    5.21781606252651    2.05876742969927
H        -0.03269825122221    6.07625628263641    0.95999317103543
H         1.15786914660704    5.33648146192814    3.02094904451476
H         1.83561456274415    4.59137456449816    1.57369670122846
H        -0.14644009859085    3.30260770394479    3.50169447080484
H         1.56895796486813    2.90919403129163    3.36720275493043
C        -8.59939024420655   -0.95198717691277   -0.98869553480660
O        -7.25896137832152   -0.83011283500199   -0.51166992567659
C        -6.46957438185292   -1.88554565540714   -0.64489682056794
O        -6.79556721594215   -2.93770319613561   -1.14071319276801
C        -5.09586639292432   -1.62921772857433   -0.10396168959404
C        -4.73429879723470   -0.41473669469342    0.48527180512086
C        -3.44584555904208   -0.25877955699183    0.96056602790884
N        -2.52828321861084   -1.22212140082883    0.89303409600120
C        -2.86497047421928   -2.40295325745194    0.31031723934295
C        -1.78895001267581   -3.34384061701978    0.24184415602452
N        -0.64532876682997   -2.95487341155153    0.71215184020956
C         0.46092389065207   -3.81018318554764    0.66951207604465
C         1.65233819209062   -3.35812063423411    0.09647690712223
C         2.74954565338742   -4.19183144547521    0.04568317532514
C         2.66232707591372   -5.47286818118622    0.58600140226448
N         3.80731563623256   -6.33811201658546    0.53962411135256
O         4.83125509029179   -5.90314967575018    0.04637559774567
O         3.69371905533508   -7.46082688852808    0.99515514571785
C         1.48190037097035   -5.92889330454461    1.16622620787803
C         0.37966848548545   -5.09988239080811    1.20265522035660
C        -4.14319483521125   -2.63257900937234   -0.19597991313780
H        -9.01601015311079    0.05094650469208   -0.96969488422261
H        -8.60495316316344   -1.35790075968881   -2.00137082672150
H        -9.16772390321464   -1.61722832661405   -0.33680614862378
H        -5.44903123836850    0.38712836107621    0.56810688175780
H        -3.13606927209540    0.67266208190117    1.40947106291446
H        -1.91868929522404   -4.31143396130952   -0.22892871796687
H         1.68740218265878   -2.36813630647763   -0.33166221719931
H         3.67546347771648   -3.87198346774085   -0.40661707143641
H         1.44605116952345   -6.92655824984000    1.57564352744328
H        -0.53890204778790   -5.43703626874417    1.65700888979632
H        -4.39635519940382   -3.57304758864464   -0.66037447239065
Cl       -0.22197471296837   -0.44464721725629   -0.89904092424245
