68
 energy: -107.582326506921 gnorm: 0.000522793782 xtb: 6.4.1 (afa7bdf)
Ir       -0.40738671414654   -0.69670722078629    1.81825959342729
C        -2.26460196623693    1.31581916974726    3.87482219235676
C        -0.97510647497843    0.63378848565478    3.57537025222615
C        -0.60297955133460   -0.66953914564104    4.05321086960859
C        -1.42872549577663   -1.52187855134296    4.95632611220601
C         0.80645637114995   -0.84207997165525    3.81640505848398
C         1.64496868574417   -1.84961076781479    4.52166018879582
C         1.25575630557177    0.24926139351959    3.02657017609274
C         2.67022458204149    0.57565678780018    2.68469216188304
C         0.14300174778039    1.18608175445424    2.89255383528770
C         0.28913648317269    2.58829972909315    2.46701297000072
C         0.01250332187962    3.59713720089836    3.38968230596252
C         0.19652304262561    4.91569050848417    3.02083759058098
F        -0.07060984737923    5.88283018571567    3.92455578971081
C         0.64287335052137    5.28395919230117    1.76459346891073
C         0.90538608232023    4.25981520938506    0.87149934841662
F         1.33943990839956    4.58074553570850   -0.36509508135907
C         0.74212076709084    2.92660268007879    1.19512870992346
H        -2.37476625645293    2.22178974462167    3.28538047313333
H        -2.27549346164326    1.59108090208496    4.93003189047324
H        -3.11628030054396    0.66180219854528    3.70209810748837
H        -1.18510140282033   -2.57334031100252    4.83280907402363
H        -1.22534684291551   -1.24919963632428    5.99251464697468
H        -2.48904339277118   -1.37957848377535    4.76979608773167
H         1.76915329223624   -1.50997218130726    5.55159679331151
H         1.16376646497346   -2.82336525383721    4.55550085474429
H         2.63156549198863   -1.94180218961187    4.07949537684447
H         3.30147912514940   -0.30636704947222    2.74350330792915
H         2.74475498979819    0.99754591488301    1.68576996085556
H         3.04556946970957    1.31736991312115    3.39044997440980
H        -0.31694623383642    3.36874452442742    4.38993544387610
H         0.78114496465683    6.31759951244481    1.49496709431091
H         0.93500826730540    2.16733583641073    0.45389851430624
C         5.28352466895570   -4.21084056045027    2.12944073444268
C         4.50403517913805   -3.38826998055930    1.45276794560390
C         3.23101925302038   -3.78791995369414    0.77325845839195
C         2.03577519089170   -3.02923958143980    1.36317701475182
C         0.74612062573604   -3.40895355642317    0.65348181835622
N        -0.40127409595662   -2.59596369175318    1.01159906631495
C        -1.55025862245794   -3.00572476107455    0.58866970094574
C        -2.65110323166616   -2.09483234982762    0.62223326333250
C        -3.93336838261299   -2.37191030286118    0.13935366284829
C        -4.86052021567491   -1.35879516424209    0.07441309545725
C        -4.48844714991261   -0.05998963425752    0.46329795494193
C        -5.42011624006513    1.03149343601403    0.37158232186389
C        -5.31351870222048    2.37219550870240    0.68532379906955
C        -6.55891843162882    2.95060788317705    0.38050908036753
C        -7.33872049757899    1.93333187079444   -0.09579191568318
O        -6.66566239472533    0.78193354551269   -0.10404726401173
C        -3.18756208769532    0.13085919288112    0.94721095288687
N        -2.31301044682606   -0.85487511835037    1.05336899497030
H         5.04993014193595   -5.25801480387246    2.23307502708930
H         6.19502833481973   -3.87984352530564    2.59781905367567
H         4.76856813319940   -2.34264238965609    1.35772720762025
H         3.07980572091740   -4.86317603940462    0.88046705982159
H         3.31384472421815   -3.55717012348678   -0.29205104457175
H         2.19975577346492   -1.95675512076956    1.24711442708323
H         1.95796486473626   -3.27311165286819    2.41907013541789
H         0.89802744315808   -3.27389413607672   -0.42445002564214
H         0.51452643240987   -4.46334647573727    0.83226431833501
H        -1.66611292197344   -3.97262502632413    0.10939305408738
H        -4.17500300895152   -3.37152661085910   -0.18343935648261
H        -5.85974252434636   -1.53785293085566   -0.28875317534277
H        -4.45925195844271    2.88138292126819    1.07999698069269
H        -6.84111066229036    3.97628681033031    0.49602382982777
H        -8.35200424049217    1.91570157829323   -0.44620101038042
H        -2.85583661788846    1.11394337637787    1.24056826159056
Cl        0.29254717352035   -0.09140025001393   -0.38285657059906
