70
 energy: -108.928125225328 gnorm: 0.000649333983 xtb: 6.4.1 (afa7bdf)
Ir       -0.87802750683662   -1.22661264596546    1.51957273246023
C        -1.97031661986848    2.43510924391790    3.06841311543923
C        -0.81248904199617    1.54024882397206    2.86236260486236
C        -0.78209426939272    0.14924360208187    3.20640431510916
C        -1.61016482945777   -0.38068395777537    4.36050316719627
C         0.55896651301527   -0.33855800100855    2.86669226271899
C         1.32211163312110   -1.25806970942524    3.79399606097234
C         1.25782528688581    0.79522667127286    2.25641239656609
C         2.63675557334611    0.72800815426003    1.72918168730257
C         0.42478962021586    1.90839370391359    2.28520283401160
C         0.74625051338482    3.23110940995707    1.74399931257485
C         0.56255949068839    4.37520609649036    2.51911654032945
C         0.88389512328827    5.60896868244471    1.98806093828036
F         0.70290447803892    6.71234448480915    2.75005237885389
C         1.38383336517077    5.76430153102376    0.70785214271230
C         1.55330484792429    4.61091672586669   -0.03788666819772
F         2.03584392943908    4.72290285533024   -1.29651795990167
C         1.24868502798417    3.35599593406888    0.45011560595440
H        -1.91252777825871    3.30320535467797    2.41802584542183
H        -1.99101409742859    2.78190873072844    4.10271214412248
H        -2.90106808800626    1.90554317936182    2.88187805214317
H        -1.72672768671817   -1.46305267979535    4.33375432778910
H        -1.11820852063531   -0.12262312650652    5.29876445350722
H        -2.59619292215466    0.07400208337002    4.36702612285753
H         1.70053704826302   -0.66098189455790    4.62528065611645
H         0.69293109466440   -2.03929664133894    4.20946360543016
H         2.17440388742216   -1.71415589636693    3.29879900630033
H         2.64146665332977    0.21612435538354    0.76685255991803
H         3.04639500082888    1.72377580115196    1.58660484714946
H         3.27710447871522    0.16515342775015    2.40544544112036
H         0.19691001318073    4.31307086815631    3.53068913495936
H         1.62709911415764    6.73545149320360    0.31069379576801
H         1.36801354907483    2.49037174755563   -0.18004134427136
C        -0.62202668580380   -4.09558076914052    2.43402889344947
C         0.78818181423765   -4.44617329642355    1.96464426175915
C         1.37693728665668   -3.51245272350044    0.89826958770338
C         2.74420362828910   -4.02088138473550    0.41371217913770
C         3.82777050181640   -3.98245315709035    1.48691454465632
C         0.45402913050226   -3.34049724029130   -0.31320955372853
N        -0.74814350605261   -2.61561970273544    0.00695625213910
C        -1.79336174365206   -2.77516501225735   -0.71581340543984
C        -3.00155949899070   -2.08770813299492   -0.34417667858059
C        -4.16522002066707   -2.08856631925231   -1.11631101808862
C        -5.26124701466089   -1.39448349333692   -0.65649266025144
Br       -6.88723980608834   -1.33474881266829   -1.64759541059387
C        -5.20006848714087   -0.70908577584022    0.57513469981719
O        -6.29195283601831   -0.06054851352012    0.96484692777432
C        -6.28577354013894    0.66913733060488    2.18341384314897
C        -3.99483818148624   -0.78605328153343    1.28151532587072
N        -2.94166556273314   -1.45018127824316    0.83551341779897
H        -0.81609160906447   -4.54015038487709    3.40751450042425
H        -0.74942362274341   -2.99159268393752    2.54714363446131
H        -1.37728887311859   -4.46030062499433    1.74305492609840
H         0.78019753584790   -5.46701470336311    1.57773490253863
H         1.45776454685391   -4.42792508387190    2.82415264288657
H         1.51963453902743   -2.51516175276175    1.33398971309577
H         2.63986390635461   -5.04256745804138    0.04373248548242
H         3.07216089349965   -3.40106811856273   -0.42307352813163
H         4.78199346428816   -4.27315468879192    1.05471106941526
H         3.61124166734100   -4.66691397234737    2.30183363447543
H         3.93403276157566   -2.97811734862979    1.88943389416501
H         0.99013112700452   -2.75211462812665   -1.06666587759713
H         0.21012250567116   -4.31234273633352   -0.75390861872618
H        -1.80150976879222   -3.43314182120822   -1.58014809156721
H        -4.19824360663897   -2.61068832060457   -2.05813799461782
H        -6.10886897348837    0.00837771128872    3.03444849586716
H        -5.54108329137228    1.46712209172844    2.15384812499577
H        -7.27992869364723    1.10343024373278    2.26123802873134
H        -3.88159652571932   -0.30519238057813    2.24036893828506
Cl       -0.65804834240336    0.36045981514133   -0.15497720230999
