57
 energy: -91.577068988673 gnorm: 0.000520830287 xtb: 6.4.1 (afa7bdf)
Ir       -0.36109457763217   -0.83185026563904    1.37745755463857
C        -1.53456757406152    1.67460035075278    3.40092321118535
C        -0.43759113804689    0.75900339561571    2.97596343649046
C        -0.16220697127833   -0.52861916141355    3.57160603813883
C        -0.91731146408782   -1.12184483080882    4.71170153206678
C         1.11459872506658   -0.97589121255890    3.08448454026474
C         1.87476177154599   -2.14394553314208    3.60802802376278
C         1.57027885465601   -0.03409363206135    2.11504284780012
C         2.91172457179817    0.00462837515135    1.46580591047389
C         0.61707055593999    1.05998241837255    2.07190255472318
C         0.84670788255300    2.33709725403816    1.34209627826893
H        -1.19666616947504    2.24183689620761    4.26921405590357
H        -2.42316522311626    1.12037528192557    3.69088234824118
H        -1.78745527007149    2.38484899757564    2.61806234036492
H        -1.98708354955961   -0.96696414021727    4.60017060916736
H        -0.72274183882878   -2.18631809480934    4.80227044489636
H        -0.60210482695573   -0.63895636415654    5.63741002577000
H         1.21375468007176   -2.96169587404430    3.88239000281019
H         2.59997921721907   -2.50402651865357    2.88376259412200
H         2.41567136371924   -1.83336295522245    4.50273797653073
H         2.83251854700162    0.36606308637248    0.44330558863809
H         3.37960470633395   -0.97540806638395    1.46016682498024
H         3.55697170675565    0.69042969045115    2.01564947887914
H        -0.02627746837820    2.98126824910375    1.37766758795454
H         1.09577637124516    2.14386501849406    0.30046683070639
H         1.68815298390223    2.86161604905327    1.79542745074056
C        -7.19747041304418   -1.11330346994450   -0.53363626159294
O        -6.12568481347202   -2.04692557510536   -0.53530961440925
C        -4.93789093295605   -1.68537020447190   -0.06927014457295
C        -4.60609352157936   -0.42254489950069    0.44834532792830
C        -3.32537655225761   -0.19228749582703    0.90454641576832
N        -2.36650630048515   -1.11361994560019    0.89721064910884
C        -2.66215547513633   -2.33594603200379    0.38094300230539
C        -1.54541245671649   -3.23564662461556    0.35149393882784
N        -0.41217695616952   -2.77374828553656    0.77381978628848
C         0.72834674556524   -3.58457171276256    0.76454843436582
C         1.87695118940998   -3.13890732140904    0.10588267974096
C         3.00747802613175   -3.92780941033039    0.08680966717703
C         2.99502447742563   -5.15824153310634    0.74115331658729
N         4.16964093742107   -5.98187647743818    0.72098903008233
O         4.12096422211461   -7.06078272085649    1.28319927545252
O         5.15405884905333   -5.56073847370535    0.14127950163855
C         1.85803546880191   -5.60567080201188    1.40863808896260
C         0.72294989872326   -4.82155735343275    1.41499971357369
C        -3.92171984686619   -2.65092560652227   -0.10046559582470
H        -6.96368622015739   -0.24569545238478   -1.15428635366160
H        -7.43837969616182   -0.79562964833358    0.48299364787867
H        -8.04443171932933   -1.64657668744961   -0.95902429381013
H        -5.32804340960945    0.37523648558154    0.49531424646277
H        -3.05929280014890    0.77785925416031    1.29541758707567
H        -1.64071767103854   -4.23598022880603   -0.05482294934987
H         1.85176564749546   -2.19018868663372   -0.40742209574434
H         3.90191754492584   -3.61158590055452   -0.42766007780900
H         1.88142828772693   -6.56259238575899    1.90654907191306
H        -0.16382194401030   -5.15321713438519    1.93230271118210
H        -4.12940537282914   -3.62555958069043   -0.50948037829710
Cl       -0.10011005913428   -0.28136950456378   -0.93304741478025
