78
 energy: -116.336719590699 gnorm: 0.000444567576 xtb: 6.4.1 (afa7bdf)
Ir       -0.50388605068811   -1.06747781072939    1.37070790631886
C        -1.36010143565941    1.13111758538242    3.96833702718168
C        -0.34844247925092    0.32502203503655    3.22954800415360
C        -0.15653914504753   -1.07941197306745    3.55407340158587
C        -0.88747736377407   -1.80337088903553    4.63521923214318
C         1.05101854266556   -1.52007382338780    2.93251743665391
C         1.79831862026773   -2.76589397638625    3.25879351293745
C         1.49637396393619   -0.46137468421431    2.07772371724110
C         2.80126847029388   -0.44444756249986    1.35526411504248
C         0.66392486955403    0.71579570689464    2.31970077088253
C         1.12491845564533    2.08007435476420    1.86614418847055
C         0.80712203553516    2.39229018729784    0.39677666748507
C         1.53383321884502    3.66207185711238   -0.03563891100830
C         1.13367195380961    4.84163582762626    0.84630181319730
C         1.39020950793697    4.52124838067173    2.31626297487692
C         0.63941826964448    3.25371804924956    2.72013695857797
H        -2.28650701749465    0.57323068970456    4.08238437657522
H        -1.58120145756984    2.07494061458609    3.48988192432787
H        -0.97252958798590    1.32962800166011    4.96839160665137
H        -0.74669833717453   -2.87696179795917    4.54994776910712
H        -0.50198077421928   -1.48483121334537    5.60416078932271
H        -1.95186544585702   -1.58605186644626    4.61137471511431
H         1.13078415369545   -3.57349052894736    3.54510567928591
H         2.41262093866947   -3.09850283963030    2.42748867891027
H         2.45588816736139   -2.55425601848741    4.10285152076313
H         3.13949241011021   -1.45409618966177    1.14009780611353
H         2.72829610475221    0.10851053512388    0.42285157460940
H         3.55126776954638    0.04065671338699    1.98190487478603
H         2.21942826599742    2.05192993018226    1.95410155618302
H        -0.26722046895738    2.53543188377949    0.28260449705298
H         1.09933229896453    1.56233955661103   -0.24524246606207
H         1.29628058500842    3.88192385351077   -1.07845139579353
H         2.61399784072513    3.50877835109462    0.03306165093573
H         0.07194767435002    5.05547180363618    0.70357382615448
H         1.69470898552887    5.73184013789681    0.55395317955711
H         1.06135944831721    5.35551492174539    2.93926228154600
H         2.46223861948279    4.38707166365620    2.47994042042777
H        -0.42302105092086    3.42476347175408    2.54837435489707
H         0.80433015212427    3.04811504397212    3.77833209985863
C         6.60860589643411   -7.04729173118069   -1.41056406132172
O         5.44888910190988   -7.30361486475293   -0.64239198480041
C         4.49753136195481   -6.34875259893477   -0.53144429807384
C         4.57610308472017   -5.07214584622773   -1.13129668717314
C         3.56577680340506   -4.16745951460345   -0.96492810067712
C         2.42445321142923   -4.47743836902009   -0.19558600253674
C         1.37973523324611   -3.55815749376406   -0.00933578992371
C         0.25932189582905   -3.90595114401547    0.71552458346301
N        -0.78893077419743   -2.99081194412663    0.83200881661897
C        -2.01041885699624   -3.38738663008082    0.65782060369572
C        -3.04473868246050   -2.40415950827187    0.65786646858453
C        -4.36417199920680   -2.67357143540599    0.29367012494259
C        -5.26593806357513   -1.63940796823283    0.15223969644892
C        -4.82273395423839   -0.32943593674707    0.35319613877237
O        -5.53977544075965    0.78363758114545    0.21939457761150
C        -6.90254636211148    0.69796023304646   -0.16938000119073
C        -3.47936829847289   -0.15165304557815    0.74288558547674
Br       -2.91361274810338    1.61753101836628    0.97633163691865
N        -2.62384380027123   -1.13892423742320    0.92418820424404
C         0.17034141000884   -5.18891810291065    1.30974026785775
C         1.18915465927700   -6.08198009423801    1.16798709699916
C         2.33969091397818   -5.76572298291442    0.40559642738578
C         3.38687388126580   -6.67626038350830    0.22589348941600
H         6.35904661236344   -6.85339077604345   -2.45740077361073
H         7.20447762305826   -7.95550589139300   -1.34470256924806
H         7.18007987434828   -6.20881352167640   -1.00312293919950
H         5.43404984522357   -4.80574938059010   -1.72740795308795
H         3.63029822000407   -3.19503175245557   -1.42947159538846
H         1.42637019588795   -2.58731954731036   -0.47956490222278
H        -2.24105648746955   -4.41724856615838    0.41166190323686
H        -4.66554828187389   -3.69086188812795    0.10606011969974
H        -6.28518288906089   -1.83999161883228   -0.13395918769960
H        -7.25430049629117    1.72666549721041   -0.20304696537407
H        -6.99889980066087    0.24384393184911   -1.15806414820238
H        -7.48353946683863    0.13419178106994    0.56344359315504
H        -0.69813884524280   -5.43468076265072    1.90146311867609
H         1.13152601335285   -7.05293767666208    1.63530128728878
H         3.33670090916463   -7.65557231199116    0.67481278788303
Cl       -0.36965620699544   -0.57318849905213   -0.97066970471746
