71
 energy: -107.237408840748 gnorm: 0.000246610430 xtb: 6.4.1 (afa7bdf)
Ir       -0.16942497494110   -0.45328196382803    1.57601423707314
C        -1.68595414500885    1.32710597195330    4.06583953257761
C        -0.45133420864379    0.70179432839958    3.51683472539189
C        -0.00806036417414   -0.63957136140085    3.78877689439002
C         1.32131957624164   -0.78457922752707    3.25250902629914
C         2.24793310461089   -1.90849772340170    3.56441622788065
C         1.64251145771770    0.41074402201002    2.54779697928237
C         0.53385407520132    1.34175912683576    2.71492841467692
C         0.58950782253367    2.78143554255463    2.40914554998981
C         0.55771182316681    3.69334128164083    3.46334497063213
C         0.66495789659542    5.04774286676161    3.21945491123706
C         0.80054955927976    5.53216955122546    1.91933503960845
C         0.93981991939491    6.97370412983298    1.66414838128858
C         1.84224933969745    7.43661585864419    0.70811638458953
C         1.98813631647659    8.79149409127926    0.47442014021703
C         1.23101869286166    9.70695887075666    1.18734877755139
C         0.32772484252929    9.25814068362283    2.13708890547517
C         0.18495215965615    7.90355194825734    2.37648023615496
C         0.81492988060855    4.61584987058243    0.86891632707348
C         0.71362665450145    3.25986469398621    1.10839432005477
C         2.96713711155273    0.77891493470411    1.97684213687555
C        -0.67216717431910   -1.58632673989039    4.72923975864736
H        -1.56244715964217    1.46744102774999    5.14008125308013
H        -2.55746830274354    0.69254980146400    3.91837167580487
H        -1.86200032443977    2.29909041585197    3.61245152737382
H         2.68806813511295   -1.73003848604981    4.54621953441962
H         3.05120541193609   -1.97466050464574    2.83757655022315
H         1.72519742053600   -2.86084611145994    3.59658624085680
H         0.47725187196928    3.33633460857568    4.47900661340450
H         0.66821187321857    5.73930204261298    4.04860986089948
H         2.44886341637868    6.73085609612199    0.15950866160194
H         2.69646053014203    9.13603764595979   -0.26532964859163
H         1.34510749287023   10.76523079726391    1.00345354624416
H        -0.26773853347562    9.96822004642583    2.69284613687592
H        -0.53266327563472    7.56337664574540    3.10890395246070
H         0.89312197674291    4.97122986482213   -0.14764099740240
H         0.71136841118910    2.56576410625815    0.28222267040157
H         3.53004101884970   -0.10118163456072    1.67940843007697
H         2.84873138269622    1.43349813282142    1.11733413103927
H         3.53862753778951    1.31777443438148    2.73372196968703
H        -1.75324574146848   -1.48512258443480    4.69070235701030
H        -0.40142096163085   -2.61472635909326    4.50737810598523
H        -0.34803067926547   -1.36384790847696    5.74674632661367
C         3.84294983306524   -6.13569811858109    0.88753091419718
C         2.73590708599441   -5.13395846449093    0.89274657765279
C         2.96235867087726   -3.81852070855997    0.49183946262368
C         1.94396594925940   -2.88838181173450    0.48950773604334
C         0.65329331958122   -3.26851986550395    0.86184504455501
N        -0.37410432752444   -2.32213174469578    0.82599664889594
C        -1.51343141378248   -2.61464982669862    0.27893001357425
C        -2.49985610102828   -1.57930484577452    0.24777782175474
C        -3.73779065104260   -1.67316301095903   -0.39499322594719
C        -4.57457002950854   -0.57741619704427   -0.41424564909397
C        -4.14071648823009    0.59326687148693    0.20792625897696
Br       -5.23312794291248    2.15158121463129    0.21858097303740
C        -2.90305602553896    0.62568891313422    0.83534493512823
N        -2.10796718615739   -0.43548927276700    0.86462443838585
C         0.41075772086051   -4.58639764088222    1.25430267535628
C         1.44741735629436   -5.49688978677031    1.27945500086201
H         3.89001215420164   -6.62316966218129   -0.08698820796704
H         3.67838979358230   -6.90468564072482    1.63782637841982
H         4.80302989628739   -5.65871148433979    1.06694693124785
H         3.95201710647599   -3.52317284319931    0.17732464071955
H         2.11438248279020   -1.87529895343321    0.15782664160379
H        -1.69247200746928   -3.57571917191191   -0.18787700769736
H        -4.02191458030617   -2.59445335300283   -0.87762416499138
H        -5.53505995023337   -0.61524421610591   -0.90297163482345
H        -2.55029256722985    1.52730825269608    1.31400408906067
H        -0.57868346457045   -4.87769246224885    1.57231081920375
H         1.25537730813144   -6.50906787943403    1.60172509829466
Cl        0.37115219147659    0.19305787478098   -0.66653298407887
