76
 energy: -124.404669615194 gnorm: 0.000160764179 xtb: 6.4.1 (afa7bdf)
Ir       -0.36987986868015   -1.00312577047354    1.68561674981609
C        -1.64746659198984    0.78773392764922    4.29176777458474
C        -0.46274512111853    0.19025653430357    3.61682661994715
C         0.05807283685057   -1.12376355111287    3.86900351722791
C         1.31816517437002   -1.24560143744513    3.17267499868394
C         2.30066323471871   -2.34399546244073    3.38616125839545
C         1.51898657296069   -0.06201905674269    2.41282241537820
C         0.40301187856318    0.83964126698558    2.68437584027505
C         0.39769630018587    2.27171327513625    2.34962650832243
C         0.37022416462991    3.20598170631256    3.38566024740590
C         0.44986823027361    4.55634698219344    3.11126618947160
C         0.55337961359690    5.01584201929618    1.79905339738677
C         0.66953508819266    6.45318420998075    1.51237578550599
C         1.55028675924047    6.90753716024416    0.53223552624559
C         1.67472213754469    8.25918249652083    0.26912455427866
C         0.91665989714611    9.17911286873609    0.97531403474613
C         0.03553797943597    8.73853375230114    1.94954565781163
C        -0.08494584778598    7.38756944199246    2.21929265723387
C         0.56129434511847    4.07756795700296    0.76740924340295
C         0.48854886322031    2.72602246909287    1.03641296482087
C         2.74465127825303    0.33021236252303    1.66424132227706
C        -0.45473899837486   -2.06461901758510    4.90295202942937
H        -1.39110422962417    0.99807717844338    5.33066985312890
H        -2.49161839666836    0.10147088658919    4.29804319859092
H        -1.93755807870950    1.72042726664172    3.81596379734721
H         2.89199377403579   -2.10952214312449    4.27214536540176
H         2.97727430065235   -2.44514487708781    2.54299475146806
H         1.80477728361408   -3.29594718552552    3.55562381658420
H         0.32537992066845    2.87111413175594    4.41036747735376
H         0.46036627034277    5.26486259215036    3.92565291436563
H         2.15800904106614    6.19884526128132   -0.01114302538915
H         2.36697708666082    8.59788226866219   -0.48822802985480
H         1.01303837628097   10.23469654488798    0.76743807290303
H        -0.55954568343575    9.45249189967903    2.50051247597687
H        -0.78485203948346    7.05317621023083    2.97102552352191
H         0.61442854719292    4.41331998751511   -0.25720093433613
H         0.47852755171870    2.01632759638028    0.22468302562624
H         3.46744510604412   -0.47916480448526    1.63869661851566
H         2.50063403748920    0.62021132073205    0.64457774633375
H         3.19575135866333    1.19501827592646    2.15040584876807
H        -1.53328945873288   -1.98679638398250    5.00556132083738
H        -0.19021153069987   -3.09207388883868    4.66990213302677
H        -0.00508784689032   -1.81234449249881    5.86433269284176
C        -8.42519390855443   -0.58628188720093   -0.65994804011251
O        -7.07773527549376   -0.51766723367017   -0.19205798984857
C        -6.33378381629416   -1.60507657080998   -0.32628259111525
O        -6.70611925342517   -2.64467258021165   -0.81577600286611
C        -4.94617218213372   -1.40504663755057    0.20399919885969
C        -4.53165359924844   -0.21032386787523    0.79834018955719
C        -3.23402986371009   -0.10872445332709    1.26482203615193
N        -2.35807152469474   -1.10873448190267    1.18185541894925
C        -2.74368827015350   -2.26866906670946    0.58847862103558
C        -1.70013332185555   -3.24381196473972    0.48432123348834
N        -0.53778916414686   -2.90525969169220    0.94508469807321
C         0.54439426240521   -3.78605351041866    0.84375551834021
C         1.73702897857796   -3.33607356636481    0.27116135957547
C         2.80730324231440   -4.19667658694556    0.14840358921003
C         2.69392029107538   -5.50237629708743    0.62018138408636
N         3.81066733375054   -6.39701833087011    0.49745715574856
O         4.82298567526540   -5.97628714111999   -0.03058982502705
O         3.68574026254080   -7.52849771608207    0.92755478672904
C         1.51448110364878   -5.95512170390199    1.20510631260144
C         0.43757944219907   -5.09914668002413    1.31117753818045
C        -4.03414315807442   -2.44413560964935    0.09274851721407
H        -8.80069950254709    0.43277379994235   -0.64168703878958
H        -8.45399180482684   -0.99485526674514   -1.67119354629468
H        -9.01557948207730   -1.22595382697741   -0.00207368328115
H        -5.21240415759454    0.61941674495973    0.89200279324444
H        -2.88234142649531    0.80732499920836    1.71619937243524
H        -1.86821338048428   -4.19181786316619   -0.01371069849409
H         1.79335091056152   -2.32487753512807   -0.10200256953707
H         3.73212899707439   -3.87847169661416   -0.30725952378988
H         1.45841071332220   -6.97218607851956    1.56122726483194
H        -0.47985203035899   -5.43471374509772    1.76892549236801
H        -4.32768742438987   -3.36902128343824   -0.37938369585520
Cl       -0.06126798273560   -0.38708745000549   -0.60431121132844
