76
 energy: -120.552212184019 gnorm: 0.000627463925 xtb: 6.4.1 (afa7bdf)
Ir       -0.56395192716454   -0.64409120682630    1.56390196533582
C        -1.95911591829350    1.06275396110876    4.18586110436904
C        -0.76004399529795    0.43335173219719    3.56674306770058
C        -0.36269685801619   -0.93101473832082    3.75999221346314
C         0.94705188544913   -1.09866834507421    3.17733847318964
C         1.85349136951910   -2.25826609650401    3.40025177803045
C         1.30808997735817    0.11941248568965    2.54100295195232
C         0.24078101452219    1.07985247462799    2.77368088337529
C         0.36410152550901    2.52628239992665    2.53655784396932
C         0.27570658226659    3.40453631717712    3.61631807311064
C         0.46104366950479    4.75973211333430    3.43171774726752
C         0.73703509516881    5.28050868257061    2.16808456279906
C         0.95950770342036    6.72172906922246    1.98023480929659
C         1.96442212358852    7.17539541530027    1.12760970423789
C         2.18515347008370    8.52979669866646    0.95789977315723
C         1.40227653979744    9.45344828205975    1.63141758236924
C         0.39829678799921    9.01371611598203    2.47885424357013
C         0.18017490119445    7.65959287612542    2.65494895652701
C         0.80859687103722    4.39953466113706    1.08964617385293
C         0.62707752700530    3.04281980869220    1.26855566470948
C         2.64728424314223    0.43416542166341    1.97276013422681
C        -1.04545275206695   -1.90191428558889    4.66102427877125
H        -1.79832055305113    1.13965273781093    5.26171666671509
H        -2.84917367153690    0.45674679609526    4.03129985323930
H        -2.13217587413680    2.05724144472130    3.78596069733579
H         2.38677306137095   -2.10127887494031    4.33881223787421
H         2.58943652635757   -2.34198531221752    2.60571312904751
H         1.30467637347154   -3.19275940026273    3.47871363596379
H         0.09737082978296    3.01986731310331    4.60828094949405
H         0.41944159557737    5.42206033323341    4.28311460881562
H         2.59160008675930    6.46252933892616    0.61230977473414
H         2.97220038502176    8.86756711519947    0.29926421317124
H         1.57447938826495   10.51121472803849    1.49634437695635
H        -0.21656951864616    9.73052766819850    3.00373172187008
H        -0.61400273851953    7.32710493307369    3.30720356518895
H         0.99542810538369    4.78373032878583    0.09824957410180
H         0.66546039070358    2.37872901272514    0.41781778556120
H         2.99214701518187   -0.35493019196947    1.30904443945210
H         2.62499362171510    1.37048318211512    1.42348390687274
H         3.36442592467628    0.52616603232683    2.78923870809002
H        -2.12490729720718   -1.78450595922387    4.61827196567825
H        -0.78567922084117   -2.92578927039604    4.40713412519871
H        -0.72734903902007   -1.71800833076791    5.68802508535097
O         4.30687380060196   -6.02784296803957    0.13550698514684
N         3.25951208438732   -6.34035427379654    0.67124554223359
O         3.04624242106683   -7.43334634642060    1.16323446910303
C         2.21009356923177   -5.36308485106158    0.72160137708820
C         2.42250923500100   -4.09830277436160    0.17667896294143
C         1.41400098112204   -3.15972600020204    0.22805708051371
C         0.18465562421014   -3.48932653818588    0.80529403579976
N        -0.83245688465227   -2.53191395050359    0.83920104254743
C        -2.02191226884075   -2.82798663049425    0.42126876028234
C        -2.99976659159776   -1.78549252117477    0.44285205503898
C        -4.32877278260595   -1.98291440511326    0.01964447965615
C        -5.19508974219061   -0.92679209390783    0.03551387623056
C        -4.72049188171405    0.35072674980134    0.40154905479617
C        -5.54410338896619    1.49329632003961    0.37554042457455
C        -5.03525693403036    2.72913420784901    0.67259869884564
C        -3.67542160258945    2.87031261566418    0.99311189722497
C        -2.85405667346423    1.77718485510360    1.05708620368852
C        -3.35189507037704    0.48837227202400    0.78732867112735
N        -2.54072062684162   -0.59587569080740    0.86651844166024
C        -0.01940422719857   -4.76088150143134    1.35071390681552
C         0.99422300392129   -5.69551406668472    1.31325610792555
H         3.37498940372029   -3.87301521897826   -0.27730758632754
H         1.54476170568219   -2.17736413976061   -0.19993862176117
H        -2.25569134213010   -3.80176698061607    0.00559146291974
H        -4.63675668423227   -2.96516512176610   -0.29862229665643
H        -6.22865962095713   -1.04661645178274   -0.25034458021729
H        -6.58048476038533    1.37388841522317    0.09981980510496
H        -5.66933353259888    3.60121255753835    0.64420123912423
H        -3.27355261857015    3.85231568206482    1.18682437932456
H        -1.80362062623297    1.89442980963734    1.26742314387004
H        -0.96229225384604   -5.00141334748109    1.81688288280718
H         0.86273917417085   -6.68200237104565    1.73034674552793
Cl        0.04411188387375   -0.00034970905487   -0.65032365294085
