75
 energy: -122.279300384163 gnorm: 0.000384499176 xtb: 6.4.1 (afa7bdf)
Ir       -0.69513688768911   -0.90876102195805    1.33796331590091
C        -1.89889700770207    1.21316899156017    3.75498455691766
C        -0.75854833784041    0.50501111913376    3.10619728484792
C        -0.30742727137383   -0.79079076994173    3.54581095098864
C        -0.87978906981591   -1.52984495868971    4.70780564087803
C         0.95509605832753   -1.06330860160028    2.90548051607507
C         1.91163916332411   -2.14705586159549    3.26689534167658
C         1.22636710111688    0.00357377708243    2.00980304802180
C         2.49008282272720    0.18663767461946    1.24385551528758
C         0.15421455246642    0.98333425214962    2.11662216467449
C         0.25813623858639    2.35416240350345    1.50630544039983
C        -0.97678393374030    2.81995644871963    0.72828939641456
C        -0.68999151798225    4.16946220376225    0.07461988856831
C        -0.31590861235915    5.20723296447162    1.13073761869914
C         0.89234150165257    4.74035104423453    1.93861285002495
C         0.61860266510849    3.38634909106466    2.58753963868608
H        -2.77646572315811    0.57333616729892    3.82033777743723
H        -2.15907002299285    2.12877970864430    3.23696357937569
H        -1.60469133434861    1.46953322146132    4.77358543115916
H        -0.54521460179260   -2.56242980818387    4.73009835372371
H        -0.54405768628420   -1.04788486125355    5.62702706894440
H        -1.96589207951472   -1.50394864511130    4.69831323168490
H         1.43067755360941   -2.93207309492361    3.84060421340426
H         2.37147248604814   -2.58626840750780    2.38413961197223
H         2.70596943829306   -1.71576419114383    3.87699881594670
H         3.05794599690844   -0.73820836788292    1.20403455469139
H         2.28712893310451    0.50854275306207    0.22465088649874
H         3.10068781582973    0.94935732482041    1.72770308607111
H         1.08421572135004    2.32477274151606    0.78941345596173
H        -1.83315709371207    2.93597737506750    1.39261639641954
H        -1.22253057515860    2.07963841700468   -0.03494446719423
H        -1.56753445378010    4.50490405397078   -0.48149194638859
H         0.13086554617648    4.06341915845237   -0.63819242417837
H        -1.16250792491561    5.36579289741583    1.80293115245437
H        -0.09254304671735    6.16169355964936    0.64990018501933
H         1.12951568314384    5.47500561812177    2.71072121651419
H         1.75949859327809    4.66143260519089    1.27873430735599
H        -0.20243268202699    3.48559429408102    3.29798207961282
H         1.50068568848991    3.05275397159767    3.13710870160135
O        -0.40742254758297   -4.47470061368961    2.92255819325641
C         0.35292842136690   -4.55743357588465    1.82375793156348
C         1.42113629315343   -5.45387621087339    1.81341833730883
C         2.21675927637916   -5.59294160663771    0.69547308563323
C         1.94693276764751   -4.83647452262066   -0.44187181489474
C         2.80762671611743   -4.95858793905756   -1.66336817073726
F         3.47976888279626   -6.11919324668425   -1.72512253969121
F         3.74409877930291   -3.98477215227917   -1.73101252365433
F         2.10391805860844   -4.86674986588812   -2.80709154324651
C         0.89275179209530   -3.93589101410976   -0.45448856600262
C         0.10252228600160   -3.78350356278769    0.67700918129634
N        -0.94696788518777   -2.84244608090133    0.68220481623039
C        -1.98427221102001   -3.03533438193377   -0.07593689370473
C        -2.97463508930685   -2.01193771203583   -0.08650732675401
C        -4.17023502948173   -2.07406444023148   -0.81210931434499
C        -5.04191850394874   -1.01437966821013   -0.76853353164132
C        -4.71673499430370    0.11020102900247    0.01232918058935
C        -5.60746954883688    1.23516824137078    0.08937213679288
C        -5.52424150316358    2.43817155702151    0.76358648722773
C        -6.69923793682220    3.14696167742087    0.45810891005409
C        -7.41898775154008    2.33644038589921   -0.37654248342840
O        -6.77388375454208    1.19133321775801   -0.60140531648547
C        -3.50355615268543    0.09398623690005    0.71157931019077
N        -2.65874763621548   -0.92394285326549    0.66951939906340
H        -1.17008016646276   -3.89118245173120    2.78833884456916
H         1.60575295975064   -6.03976083667603    2.69865758191167
H         3.03941256822538   -6.29002507693334    0.69597192326751
H         0.69170646035760   -3.32894175070833   -1.32368701486789
H        -2.09186004222317   -3.93355993506710   -0.67276792091911
H        -4.38340247977603   -2.94903326779375   -1.40469763460420
H        -5.96609515660352   -1.02769175737599   -1.32342254775727
H        -4.72609458086770    2.77526842243633    1.39043417881906
H        -6.97677352939113    4.12062074162512    0.80496784619201
H        -8.36999995911214    2.46975938523539   -0.85368868440946
H        -3.22011496538762    0.93660063029650    1.32101495941690
Cl       -0.19453353399222   -0.48131224939880   -0.95943991238025
