64
 energy: -111.755515321044 gnorm: 0.000655825703 xtb: 6.4.1 (afa7bdf)
Ir       -0.69375529594320   -1.06383601585675    1.42819053478162
C        -2.22260124354338    0.57980254238229    3.98211359608686
C        -0.96410550941814    0.07259119131999    3.37004448887831
C        -0.36558675408115   -1.19942866850367    3.63578667671000
C        -0.86857014788380   -2.19710945579332    4.62032062963189
C         0.93074898654337   -1.22606013025435    2.99774353965593
C         1.98644942611301   -2.24608494277121    3.25027575643773
C         1.09280989062944   -0.01687158832668    2.27269768130359
C         2.33735892409525    0.45549113065380    1.60973897268966
C        -0.10486216626735    0.78670034937563    2.47405336978720
C        -0.21665079865995    2.21497980616851    2.12668136885540
C        -0.30461396954288    3.15301564335046    3.15387542044047
C        -0.35865881366793    4.49602810558146    2.83236135918229
F        -0.43790612644113    5.39748986128761    3.83263674906319
C        -0.33588900546692    4.95226147331755    1.52631585597280
C        -0.25402341407146    3.99480413669618    0.53033709809880
F        -0.23472487478858    4.40164152219823   -0.75508920188507
C        -0.19428502880001    2.64080849669231    0.80163283571464
H        -2.53704925817152    1.50906384761567    3.51570460130047
H        -2.04859927683975    0.76620122280482    5.04218716209824
H        -3.02356671603070   -0.15209411443997    3.90686923706871
H        -0.52787010634336   -3.19900281282749    4.37476028623114
H        -0.48464773873530   -1.94495933340771    5.60952053253757
H        -1.95362758606203   -2.18830069700197    4.66728009613240
H         2.53145913129713   -1.96346305250024    4.15174101897660
H         1.55985532511333   -3.23257920558822    3.40990104355378
H         2.69619172566577   -2.29516536603655    2.42970284014925
H         2.91566840291596   -0.37655121197157    1.21832492477139
H         2.11148789110033    1.14124212760272    0.79843367515237
H         2.94986162459408    0.98271255810440    2.34216486542852
H        -0.30729143005990    2.85396646259005    4.18927179031348
H        -0.37781942127615    6.00370447976189    1.29627700001787
H        -0.14696256056878    1.93046793963184   -0.00915935940979
C        -7.39030925912546   -0.64668997977278   -0.84172025339360
O        -6.40744256566970   -1.67434745654164   -0.82611373261142
C        -5.21393344028762   -1.43778521128133   -0.30661264586514
C        -4.78137460690013   -0.21880759366713    0.24255719019970
C        -3.50719021019414   -0.12126484381875    0.75968689159768
N        -2.64949078426413   -1.13802804888471    0.78325668070303
C        -3.03900822477888   -2.32039542290278    0.23544969467447
C        -2.01315343880246   -3.32493427652301    0.25458347125112
N        -0.87432234245322   -2.98129717324301    0.76286737050970
C         0.18709965203379   -3.89500070840535    0.80414541075024
C         1.41820626395266   -3.53423812689986    0.25119010434689
C         2.46905413770510   -4.42711804211469    0.27610800883352
C         2.29384516623954   -5.67386756726626    0.87191466522411
N         3.38978355057875   -6.60238185364727    0.90186719491510
O         3.20230212922971   -7.68919739913354    1.41581792643690
O         4.44764509588813   -6.25270229466950    0.41279280411255
C         1.07375197550812   -6.03717839556744    1.43542827357056
C         0.01807079779557   -5.14939660043429    1.39640253083667
C        -4.29805620266102   -2.50197027122403   -0.30775058476890
H        -7.05467754606768    0.20974381044257   -1.42981501377103
H        -7.64151242465570   -0.33213273018720    0.17332527149072
H        -8.26407979419694   -1.09139268026002   -1.31280722644283
H        -5.42110274163264    0.64713363869492    0.26799444017039
H        -3.15901508657206    0.81321218169774    1.17393657153032
H        -2.17585199821537   -4.30439073219387   -0.18040371310091
H         1.52082294255499   -2.56763542696026   -0.21847239075301
H         3.42483411503504   -4.18065500146194   -0.15958869243363
H         0.97061095887608   -7.01092165472634    1.88915393692769
H        -0.93117425522384   -5.41354401049275    1.83569137545887
H        -4.58580334767123   -3.44685162272052   -0.73833243464381
Cl       -0.20804660139779   -0.51993280768541   -0.84061557146637
