87
 energy: -132.016039310451 gnorm: 0.000614214082 xtb: 6.4.1 (afa7bdf)
Ir       -0.72656807299252   -0.45293472341133    1.51048560110890
C        -1.84490313830025    1.15472182188296    4.31609059235296
C        -0.71175615367873    0.57343139762929    3.54547788654162
C        -0.28611497202720   -0.79199838038006    3.66253952140596
C         0.95136746057952   -0.93378334763606    2.94208588204125
C         1.88143374231836   -2.09316635778700    3.03840798410219
C         1.23119277525322    0.30613850551061    2.30009499399014
C         0.19505753474399    1.25625753241927    2.67559924895413
C         0.32966573939157    2.70338195055195    2.48267173441099
C         0.19246314507161    3.57131634736399    3.56603814156700
C         0.45734706514019    4.91789141294565    3.42545397762366
C         0.87952545958183    5.44361527075946    2.20553772508301
C         1.23769976646449    6.86376017095164    2.08760158803683
C         2.33333019012880    7.25430187236391    1.31840752789728
C         2.69047099637302    8.58684290350013    1.22393915557672
C         1.95736061106563    9.55405465771380    1.89273058832736
C         0.86386170026359    9.17834644730864    2.65652507689559
C         0.50818894680944    7.84520268155113    2.75740576808879
C         0.98862560261802    4.57850126965241    1.11808635545267
C         0.71444898753786    3.23248176633668    1.25110880428667
C         2.48955605173186    0.63831274320161    1.57335090431418
C        -0.86174621530494   -1.79642742824393    4.60352783111191
H        -1.56024394993332    1.21813789130180    5.36733328500346
H        -2.72681203692616    0.52015487580785    4.25484944049588
H        -2.09302591512455    2.14821641942710    3.95668243624127
H         2.56256406440930   -1.92195768846730    3.87338887212768
H         2.46970656432465   -2.20498297843702    2.13240766821889
H         1.34674532717195   -3.02046800068322    3.22276315811430
H        -0.07123801871722    3.18665672206023    4.53818217218842
H         0.37612451035756    5.56691755881894    4.28447373463530
H         2.92256466767890    6.50605686551537    0.80905711787547
H         3.54573066732011    8.87275021154483    0.62901286032344
H         2.23542064793517   10.59510441360645    1.81837701818893
H         0.28141000939279    9.92740972211227    3.17302404555773
H        -0.36475352343195    7.56839072384076    3.32964442978103
H         1.28263863309152    4.96862478371740    0.15515572792707
H         0.78700312896169    2.58224243621699    0.39346899411385
H         2.35799452499624    0.54086120401860    0.49571547671462
H         2.77328509065030    1.66905652356527    1.77868259770391
H         3.29234021296917   -0.02685272685302    1.88096155869080
H        -1.93409574016629   -1.66187673703031    4.71609072664223
H        -0.66459405322702   -2.80982830963086    4.26374058368989
H        -0.40083246779968   -1.67405429277190    5.58432924998594
C        -1.42826496479343    7.96871292901502   -0.26646473810162
O        -1.66427969045379    6.58004504019035   -0.06284402042738
C        -2.23473547131823    6.21742421560565    1.08753513248840
O        -2.53829348647345    6.99718163942127    1.96365424021126
C        -2.50105797765086    4.75815037786181    1.14680010101445
C        -3.31478139649200    4.27094643642501    2.16776720246384
C        -3.66233942407566    2.93618350757910    2.20172552038801
C        -3.15877545604640    2.05536431774346    1.24273450729435
C        -3.65147845272961    0.66911662272591    1.16683127761068
C        -5.03586742795689    0.49060618840948    1.08784875300358
C        -5.56815489454772   -0.76450192747539    0.85168054244367
C        -4.69604254711940   -1.82497642573013    0.68085441416045
C        -3.32944622158992   -1.59799192126819    0.82114591002504
C        -2.35536909787078   -2.63979253247616    0.67519531389820
N        -1.11432506133047   -2.34040811216450    0.87458806105495
C        -0.13391151674449   -3.33023038037896    0.75502306443587
C        -0.32525556924702   -4.59258577801900    1.32192541219198
C         0.64940680480966   -5.56105901633173    1.19418642410697
C         1.82317848445798   -5.31193833639306    0.48709480170092
C         2.86249603299567   -6.37174525792362    0.32437076875933
C         2.00116758625618   -4.05033039676471   -0.07774275276313
C         1.04851676942385   -3.06276055589221    0.06368445153140
N        -2.81244583877147   -0.37068109239818    1.09012281154049
C        -2.32129238248805    2.53909148206585    0.24105243518217
C        -2.00533631270773    3.88312260842893    0.18564739355774
H        -2.31267261569718    8.54588118551632    0.00963427498999
H        -1.20607851344658    8.08444289511129   -1.32404536982604
H        -0.58456214572479    8.29963249132388    0.34240347832652
H        -3.68839973914590    4.96210479933093    2.90774223989354
H        -4.32548293673740    2.57366160360345    2.97254870591155
H        -5.67351403689426    1.35452636405114    1.18361214682333
H        -6.63490463176923   -0.90603322870199    0.78121276086363
H        -5.05092809277242   -2.81659736891664    0.45310982012882
H        -2.65939958456899   -3.63321431932080    0.36503370098606
H        -1.22063572314447   -4.79463094193206    1.89037850208887
H         0.49856723791915   -6.52760128226227    1.65072452593293
H         3.86220293772271   -5.94677501763246    0.37570119890359
H         2.75431455013810   -6.84418702178586   -0.65235951962085
H         2.76136218223015   -7.14139413891886    1.08486456018337
H         2.90232337872430   -3.84150213883544   -0.63438625775223
H         1.18578958679686   -2.09197998207434   -0.38552477567371
H        -1.95129732759954    1.87000158829155   -0.51816057908504
H        -1.39024111425263    4.26286143997278   -0.61281828205009
Cl       -0.23790546578965    0.07644030746385   -0.76451820281787
