57
 energy: -100.014913544353 gnorm: 0.000799834438 xtb: 6.4.1 (afa7bdf)
Ir       -0.69796634836596   -0.92519756664361    1.35876963336523
C        -2.19358714665237    1.48827537972100    3.30621859321089
C        -1.00989613820574    0.64968803054495    2.96707017884278
C        -0.70741457043500   -0.63445493198191    3.56764608022908
C        -1.51421305925863   -1.29429049798845    4.63099428427938
C         0.62751680484032   -0.99874689451849    3.18495216821880
C         1.41116659050392   -2.12727041853023    3.75647994238417
C         1.10208706733338   -0.01344990624460    2.26196314179040
C         2.49211303272504    0.12780996989863    1.74546068792431
C         0.09199245120121    1.03038965610016    2.16381586256194
C         0.30313733415808    2.33203990280156    1.47520020665911
H        -1.95999727419314    2.07527185178126    4.19555006506788
H        -3.06504933050427    0.87898322809194    3.53121465278674
H        -2.43551120356551    2.18377284009260    2.50643255823041
H        -2.57900944316496   -1.15206122084557    4.46838704847038
H        -1.30224721046913   -2.35811315091086    4.68341564726158
H        -1.25880572475698   -0.85045654692627    5.59411344317816
H         0.77570781814670   -2.97969716816011    3.98006522979654
H         2.20223158350189   -2.44430425632480    3.08330847973829
H         1.86856261858817   -1.79409226556664    4.68851460114912
H         2.48736540742429    0.49074433320157    0.72047422772516
H         3.02960216143994   -0.81432242212016    1.78964242390135
H         3.02278242999438    0.85926020854935    2.35617333393751
H        -0.61774784366301    2.90299402446506    1.40683411564742
H         0.69289415976001    2.17681735669763    0.47132775308036
H         1.03545771860859    2.91508848534844    2.03400537233667
O         2.80360458929427   -7.62144225520329    2.13712177109295
C         1.80445207749920   -6.94470486180148    2.05847548802372
O         0.61894828383311   -7.34580251136133    2.50484087844142
C         1.77512204279018   -5.58364742880636    1.45490921321700
C         2.95837972527740   -5.04803395147451    0.94928402187670
C         2.95926097307015   -3.78562261759697    0.37918700593306
C         1.79019136869124   -3.04829421253117    0.31683795369650
C         0.60262483245941   -3.58630735454179    0.81570309959068
N        -0.57812406238929   -2.83217710444022    0.73042142041727
C        -1.64125413206701   -3.36202509060974    0.20405583858139
C        -2.80264560285986   -2.53266636840945    0.12298861238219
C        -3.99207558088816   -2.89214325061710   -0.52005864658507
C        -5.02401263530323   -1.98053207108675   -0.58299700211675
C        -4.82880371676589   -0.72118468915044   -0.00532303373821
C        -5.92831999856020    0.30520606061821   -0.07755899706708
F        -7.09347409705269   -0.17459028593940    0.38751578296749
F        -5.65650669581569    1.40909385841789    0.63049348106679
F        -6.15901084742283    0.70335398738369   -1.33975095014600
C        -3.62710876812290   -0.42747130891663    0.61786316757773
N        -2.64062316526189   -1.31176657451190    0.69670598807967
C         0.59175467059501   -4.85769590239791    1.38338346059308
H         0.66011333294532   -8.23819980802404    2.89291207697111
H         3.86049463156211   -5.63619214026135    1.01206008485508
H         3.87301125132919   -3.37619314124505   -0.02164373338726
H         1.76683385870672   -2.07469039979007   -0.14873683687779
H        -1.63591741295659   -4.36673264327292   -0.20070176163595
H        -4.08556201669289   -3.86854654265380   -0.96766978073831
H        -5.95855254511934   -2.22024597822770   -1.06600163264529
H        -3.45904002562094    0.54186038630661    1.06428598027107
H        -0.31870966128335   -5.26945642002773    1.78895480412395
Cl       -0.32687555883853   -0.23909840036484   -0.89150448657216
