68
 energy: -108.292838377515 gnorm: 0.000280665188 xtb: 6.4.1 (afa7bdf)
Ir        0.14599365126298   -0.63651363913769    1.56037846038031
C        -1.29938937369337    0.69223450232885    4.27474660339094
C        -0.05119230058089    0.24671630609205    3.59484494846384
C         0.55966238837761   -1.03739133276274    3.72743841333836
C         1.80462060065044   -1.01549243536517    3.00181880863612
C         2.87216954156145   -2.05416678524680    3.07552008749106
C         1.99092480404413    0.30877462193448    2.47769283599005
C         0.82476519011109    1.07745879447907    2.79554770270760
C         0.68378272746952    2.51925749863934    2.55271921714800
C         0.44223490660971    3.39512520257412    3.60992654735521
C         0.37137973377192    4.75562883008592    3.38589483390860
C         0.53520061547774    5.28184619052962    2.10507018713465
C         0.47914762628160    6.73294166390425    1.87487015868406
C         1.37929159142813    7.34607393873881    1.00526177998058
C         1.33649263741431    8.71220549408673    0.79616557258453
C         0.38917754984574    9.48726169286744    1.44532600097350
C        -0.51397259001289    8.88731699723677    2.30777254860902
C        -0.46730040805627    7.52247206997470    2.52506915649894
C         0.76467837184574    4.40021428206077    1.04936173998542
C         0.84142446790231    3.03945178523208    1.26768849800735
C         3.23292723858076    0.81133649685782    1.83517348035182
C         0.08256640416656   -2.15053767377426    4.59309553719238
H        -1.08458629967104    0.89046456559311    5.32537127325278
H        -2.06678471124427   -0.07727592601025    4.23559222048757
H        -1.68335147108850    1.60350580249812    3.82480803339997
H         3.49808683269566   -1.85406990286755    3.94613111029837
H         3.50216267515225   -2.02617371624990    2.19152779419176
H         2.45156937359524   -3.04973072888880    3.18211098502092
H         0.34615540776934    3.01232313949733    4.61369736110585
H         0.21306941682903    5.42388675887569    4.21870865627920
H         2.13215076486818    6.75317903564442    0.50668348438736
H         2.04563382100107    9.17538209752420    0.12540305486236
H         0.35502924842023   10.55414478058243    1.27970042490966
H        -1.25783567654484    9.48682210599879    2.81231066824670
H        -1.18461110159520    7.06250765250243    3.18881741026418
H         0.87123523619462    4.78609430191629    0.04688785115940
H         1.01323860248315    2.36778527392651    0.43873590220840
H         3.35670239952861    0.38601698434786    0.83972886618560
H         3.20267547760393    1.89379249693343    1.74161718820400
H         4.09519745060326    0.52145924972678    2.43334324487059
H        -0.99002738224023   -2.09459653504183    4.75306157080933
H         0.33149151080220   -3.11739145172631    4.16277807500357
H         0.57513651287614   -2.07786729644370    5.56330423837128
F         1.95219105112794   -7.22648496498809    1.62306779314261
C         1.32091078399715   -6.04723237673706    1.46083789263971
C         2.01057901695562   -4.98879063986944    0.89034412822738
C         1.36357357831333   -3.77868229291937    0.73443991097560
C         0.03205228799889   -3.64244930151823    1.12732855457200
N        -0.61521198407373   -2.41299110265246    0.93142607898850
C        -1.74934677064909   -2.37700963763157    0.30537278856673
C        -2.35604788100844   -1.09328955719747    0.12156662017776
C        -3.53045555825946   -0.87039831497382   -0.60325762765261
C        -4.00114418645224    0.41792606583612   -0.74640113887001
C        -3.27301784596826    1.45365055107255   -0.16110685655446
Br       -3.85949060914796    3.25666956486298   -0.31067747152354
C        -2.11260507890220    1.16994445266578    0.54761435172775
N        -1.66940099235571   -0.07102078680715    0.69085076911860
C        -0.64576619463339   -4.72210193907672    1.69589706362576
C         0.00364911389700   -5.92927490119469    1.87392455464108
H         3.03290551548381   -5.12207160619856    0.57588595925281
H         1.86338327819235   -2.93999883045386    0.27567923469764
H        -2.20305360923923   -3.27204406327896   -0.10416266076935
H        -4.05276693037345   -1.70215652818347   -1.04850863229659
H        -4.90358670541976    0.62648578555648   -1.29870012019193
H        -1.53380464546948    1.96491728863275    0.99756142104193
H        -1.66823567245595   -4.60598113012137    2.01993955178467
H        -0.49615363156371   -6.77410677563738    2.31967867902524
Cl        1.02433020809736   -0.39387514902349   -0.63310337639821
