86
 energy: -131.558194121068 gnorm: 0.000843984843 xtb: 6.4.1 (afa7bdf)
Ir       -0.63847427997026   -0.26241544186845    1.95597635000975
C        -1.55106744692025    1.77302735099549    4.73459974256770
C        -0.60701199511361    0.85178925158612    4.03452976113297
C        -0.77904287938519   -0.58982375597806    4.15813932391450
C        -1.86985024651617   -1.24190076854948    4.93960112201883
C         0.40970359615002   -1.22042566456878    3.70217057998413
C         0.80635461566490   -2.63143981290403    3.95607685831332
C         1.23227025467751   -0.20121156254316    3.10869336172496
C         2.63607774013695   -0.41677984664269    2.65413168407142
C         0.63990421844477    1.09897325242195    3.40783401605915
C         1.45432036483306    2.35866099424003    3.24798818151619
C         1.53921725343846    2.85033268304125    1.79430138006824
C         2.56968913275109    3.96929205427739    1.67705581319150
C         2.22249986396823    5.12912917402024    2.60565376584266
C         2.09354270101411    4.63805077259729    4.04517912493381
C         1.04184458081476    3.53383050956129    4.13783463189811
H        -2.58050510393173    1.45058627145081    4.59284631710173
H        -1.46298888869683    2.80462891899786    4.41889512461884
H        -1.33857561071971    1.72572542450128    5.80389142871396
H        -1.91329369745360   -2.30747989820618    4.73561239863698
H        -1.67984162904222   -1.10592633631694    6.00464941972019
H        -2.83783313953658   -0.80105287614846    4.71486311041386
H        -0.05121017119222   -3.29807945350208    3.96204181123497
H         1.53028844818850   -2.98487551328343    3.22836125476123
H         1.27002397197908   -2.67536192962369    4.94284157465633
H         2.75917593017974   -1.41532341187519    2.24404513469061
H         2.92255873229482    0.30595111948740    1.89679093413998
H         3.30955328941823   -0.30853908495914    3.50544441325839
H         2.47256891434448    2.07633411616449    3.54818763517243
H         0.56415889498349    3.21779634677287    1.47481294483237
H         1.80848351428213    2.03313093886141    1.12640019401881
H         2.60924452743150    4.32043579006498    0.64408094698083
H         3.55975608852659    3.58501062745510    1.93524794883902
H         1.28003930347114    5.58115472302745    2.28702723671242
H         2.99311013802224    5.90020742290962    2.54237086732828
H         1.81018024567036    5.46853321578417    4.69493652548210
H         3.05936094209596    4.26108380794364    4.38993470360345
H         0.09257674922518    3.95072778725184    3.80140595116280
H         0.94068674443657    3.20848843813281    5.17397558939096
C        -2.84005565424822    8.10666492308549   -1.23942379251283
O        -3.08754622018487    6.73558807195758   -0.94046229433329
C        -2.39006989909456    6.20087836607985    0.06304225691513
O        -1.57769446326084    6.81769271973409    0.71746359167082
C        -2.72327030137552    4.77233155930237    0.29451373320783
C        -3.69860138275168    4.10672026140324   -0.44389318784912
C        -3.98806790718831    2.78557065482877   -0.17054265129775
C        -3.29991409110989    2.09185087844640    0.83146427561482
C        -3.66779894247757    0.68623606845263    1.06285464638533
C        -5.02874542161834    0.35066287446542    0.98138736585588
C        -5.42937836849487   -0.97135006820061    0.98478227634496
C        -4.44837891558950   -1.94934204346593    0.97419614053590
C        -3.11962331171915   -1.55649250315773    1.10699797012360
C        -2.03848711996026   -2.48844420793058    0.95214170995068
N        -0.82601170920690   -2.05550787872062    1.06739352722809
C         0.25613362059105   -2.89370804208927    0.75962382706687
C         0.25371481385981   -4.24549989407501    1.11692967799383
C         1.33078673217626   -5.04470483515917    0.77962833733376
C         2.39347427232481   -4.50036366592229    0.08162729797963
S         3.78777785642295   -5.55527058006327   -0.35770657152225
C         4.98739694181944   -5.26596891182370    0.96811742699589
O         3.34951282530881   -6.92962116097765   -0.30068364382327
O         4.34271090090947   -5.08682715327696   -1.60447253722626
C         2.40849838908560   -3.16417185604336   -0.27629361136980
C         1.34368134383719   -2.35202636809934    0.07110763510361
N        -2.74430384800019   -0.26091568167162    1.25608057269005
C        -2.30017023789987    2.75367085048983    1.53472599019573
C        -2.02531204513655    4.08190756298918    1.28089757102248
H        -3.56532472754906    8.38330733202300   -1.99964812753378
H        -2.96352850769838    8.71696152632520   -0.34279294281264
H        -1.82236499928009    8.23161861006204   -1.61417160203746
H        -4.22706549828750    4.63061232842011   -1.22367053245025
H        -4.73269858394968    2.28018646548652   -0.76578839312552
H        -5.75713657619869    1.14330282715219    0.92878214133163
H        -6.47538612789647   -1.23150126977991    0.94799187941817
H        -4.69277452742195   -2.99393396058368    0.87342028586821
H        -2.25380159134656   -3.49943500148601    0.62477198116333
H        -0.57006921676904   -4.66263632495252    1.67462825240342
H         1.35850330181087   -6.09209435515462    1.03386771884443
H         5.27723508953874   -4.22385458104926    0.93865538249291
H         4.51929093428434   -5.53058070810969    1.90716676368549
H         5.84275452962828   -5.90278240652465    0.77792424988012
H         3.24495212899068   -2.77913648619584   -0.83693897547273
H         1.31858330822459   -1.30986425612168   -0.20898678905596
H        -1.74637718393329    2.22332041079652    2.28849557801432
H        -1.26957790015952    4.61728482790018    1.83574690361973
Cl       -0.20073037688011    0.71661444667476   -0.16582347722246
