71
 energy: -111.454267144190 gnorm: 0.000387357217 xtb: 6.4.1 (afa7bdf)
Ir       -0.50988857867409   -0.39223098029972    1.57143150098222
C        -1.95627457929289    1.33425821654540    4.21989038519324
C        -0.75869684322873    0.72766960141226    3.58235137930508
C        -0.34670788438012   -0.63850915444277    3.78249986735949
C         0.96354915190146   -0.79237794934241    3.21627582985185
C         1.90010724574814   -1.91746905298494    3.48268716860473
C         1.30091960270661    0.43231780714624    2.55142775189978
C         0.23054492154037    1.38443731792397    2.79618596571157
C         0.32666269728741    2.82809965052287    2.53609170857511
C         0.23144310913159    3.72524000560265    3.59900549422031
C         0.38216513642493    5.08063714825439    3.38519825458772
C         0.63138093684805    5.58153701760451    2.10870049548010
C         0.80687423440524    7.02410064106188    1.88470439692983
C         1.79843164773180    7.49049146495209    1.02358562283327
C         1.97071498772830    8.84678737503443    0.81689187328616
C         1.15102582266173    9.75919671880831    1.46119343149527
C         0.15938383432531    9.30647835448924    2.31633890887106
C        -0.00973085589691    7.95063229559527    2.52992037107579
C         0.71774657287345    4.68038575663713    1.04870816589482
C         0.56871747666189    3.32459074678857    1.25717128174517
C         2.64044603149060    0.76249040549584    1.99458836828906
C        -1.02188019080650   -1.60596436918375    4.69403246031392
H        -1.81001368326546    1.33489256875922    5.30077079908612
H        -2.85397281033402    0.75402658660804    4.01573006286693
H        -2.10704217705822    2.35502821047780    3.88351546910088
H         2.41038825823011   -1.71552710364980    4.42554398401007
H         2.65064527572547   -2.00183107145129    2.70300387604620
H         1.37771850923477   -2.86511903609222    3.57796882550500
H         0.07206115694215    3.35783338313680    4.60089739725457
H         0.33086926580032    5.76009417770605    4.22259039201270
H         2.45167057934524    6.78633126938314    0.52903850659515
H         2.74771650834241    9.19504053426098    0.15164332454153
H         1.28445307024667   10.81843190109383    1.29664380184647
H        -0.48464592804566   10.01458301258959    2.81761783031101
H        -0.79554288869954    7.60483856534654    3.18548430849948
H         0.88597999196596    5.04923394554870    0.04806997577897
H         0.61020611610309    2.64460883806628    0.42011995082077
H         3.01310280910320   -0.03586855734329    1.35755402938789
H         2.60509962763921    1.68517252688630    1.42302080644137
H         3.34083113705080    0.89021204120571    2.82095629368321
H        -2.10177630999220   -1.49278993140287    4.65640238575240
H        -0.76102767841879   -2.63043627720149    4.44336576981507
H        -0.69860115055926   -1.41514278433712    5.71798949713056
C         3.62240512388696   -5.97845856955188    0.82430351531117
C         2.48368978803385   -5.01424130767020    0.83236998542501
C         2.63997623186817   -3.71718816202348    0.34655765936134
C         1.60133231109202   -2.81039462128198    0.38708536910807
C         0.35767149471427   -3.19772875443559    0.89061210124916
N        -0.69502147288497   -2.28048683623252    0.87368989329436
C        -1.86294849218400   -2.65831041030309    0.45396585109261
C        -2.88012323710921   -1.66207816739647    0.35239622380211
N        -2.52760999315644   -0.42737599655489    0.78793363850615
C        -3.36083019397274    0.58366788770271    0.55753336204803
Br       -2.79989879864369    2.31797305781259    1.02687554504793
C        -4.61142745895642    0.42611388515770   -0.02724186875769
C        -5.01696128027866   -0.83863055851041   -0.42697102826885
C        -4.12821161776205   -1.88053363969168   -0.24585984104475
F        -4.43697301203686   -3.11574208005495   -0.65185374452907
C         0.18584909892883   -4.49831805644792    1.37221449770299
C         1.24347264052893   -5.38318820785996    1.35204251026333
H         3.26987513896140   -6.99638362844067    0.67783026659409
H         4.33883208553829   -5.73167260875282    0.04530405836842
H         4.14178406478807   -5.94122761050472    1.78231800185127
H         3.58940546090171   -3.41756573651353   -0.07036985361710
H         1.71404662064263   -1.81398289641189   -0.01249540663029
H        -2.05132500332309   -3.66585201163456    0.10155262105818
H        -5.24947292106657    1.28353313943564   -0.16598475992777
H        -5.97973097221598   -1.00928132579173   -0.88192555262166
H        -0.76436069856966   -4.79416438407981    1.79043578975573
H         1.10709215605027   -6.38040691053689    1.74218226180353
Cl       -0.00876622034128    0.30634969337224   -0.65789206523841
