78
 energy: -112.761443650496 gnorm: 0.000361952798 xtb: 6.4.1 (afa7bdf)
Ir       -0.89797896755694   -1.25498610711348    1.24088990499422
C        -2.03530352381933    1.17174631146658    3.49607193127265
C        -0.98230890350863    0.23815611751708    2.99882211235656
C        -0.90178471499072   -1.13650458611275    3.45563222993345
C        -1.83730360683772   -1.75339289991711    4.44059931302675
C         0.37447004713798   -1.65752625789579    3.07450676352977
C         0.97853448218359   -2.92242317106012    3.57554128817776
C         1.00213826694430   -0.68619676114968    2.23927910599309
C         2.40374679337115   -0.75730126976506    1.73064833021849
C         0.18162487903099    0.51959489585749    2.24203077395343
C         0.70984833759120    1.84630032862608    1.76679667736595
C        -0.19424021463333    2.62793285861812    0.80863642558418
C         0.51984083823699    3.89589010181150    0.34685301613727
C         0.88973295536018    4.77032023004036    1.54235100565952
C         1.76488570385501    3.99448740296677    2.52330004885906
C         1.06053591483722    2.72103993900119    2.98312669885982
H        -3.02810295783450    0.74005173795528    3.38749645589766
H        -2.01410483512022    2.12575748952211    2.98287018819402
H        -1.86411687542766    1.34603511348410    4.55922396197597
H        -1.79075846344982   -2.83807343890668    4.40138270225630
H        -1.55828958000548   -1.43848578794985    5.44685072809068
H        -2.86150075941487   -1.43791641858321    4.26048044809646
H         0.22235534757801   -3.68057143192138    3.75904720635701
H         1.71279362437386   -3.32063219378008    2.88109111325610
H         1.48131696120276   -2.71123781292026    4.52013341424459
H         2.74847019872664   -1.78669051513069    1.68969556766331
H         2.47524191616831   -0.32267003972092    0.73590020125204
H         3.06379685756137   -0.19962391311614    2.39565079630468
H         1.63930309638228    1.65033172828708    1.22414608267464
H        -1.12421716191521    2.91548214578269    1.30001404309799
H        -0.42994518937099    2.00420634673445   -0.05514198974212
H        -0.12551194637247    4.45299222274493   -0.33524946450782
H         1.42521362352832    3.62717182168310   -0.20195804814111
H        -0.02063356607711    5.09977895399627    2.04898015066804
H         1.41860441842880    5.66193451658855    1.19987123983942
H         1.99537281620115    4.61849724507406    3.38944411998442
H         2.70958781963507    3.73711678780004    2.03875777699862
H         0.15136218935508    2.98679832757907    3.52289137995526
H         1.70644701738635    2.16469828905027    3.66534730415520
C         3.63236246244641   -7.62252543112343    0.98442268934217
O         3.55797336022574   -6.33398698970828    0.40468237982302
C         2.41279721142686   -5.63424489386058    0.50963066760102
C         1.27103429583603   -6.05560069220161    1.17960120124698
C         0.13724265517487   -5.26341581077186    1.22339770561393
C         0.14395636480026   -4.00715586381248    0.62486643328819
N        -0.97762891817719   -3.18092573455085    0.66175603653662
C        -2.15718509892745   -3.67600109227033    0.44152308655569
C        -3.25819501230775   -2.76603693979612    0.43313515827057
C        -4.57894188718600   -3.16531564103684    0.14115384963755
C        -5.56136721553254   -2.21976425486186    0.07920810936355
C        -5.22269676267735   -0.85860724180781    0.24154842245745
C        -6.17013320360271    0.17589793786077    0.11692941686710
C        -5.79096063444968    1.48729878426535    0.22092393654695
C        -4.44432509306225    1.81475430063020    0.44433439830246
C        -3.50325568663469    0.83266352741791    0.59769286227739
C        -3.86394446750542   -0.52432489239545    0.51627849848283
N        -2.92483941375362   -1.48906015140086    0.66923735010673
C         1.29344820290987   -3.55656161185917   -0.03763840200384
C         2.41127602486287   -4.36136702789359   -0.12844470202123
O         3.54643447598491   -4.04490455754689   -0.78981163251162
C         3.58739251857848   -2.83769103070376   -1.52568621233616
H         4.63123100275653   -7.98639913096016    0.75262981900317
H         3.50427892980030   -7.57690696483003    2.06934586612762
H         2.88945731196959   -8.29672579034418    0.55008437206745
H         1.25399518258866   -7.01361451137964    1.67170079540753
H        -0.73322398729547   -5.60790296152483    1.75864728217422
H        -2.29587992844607   -4.72035969223615    0.19009939848667
H        -4.78502949123022   -4.21027805506234   -0.02207128303292
H        -6.58774173783573   -2.48960350570610   -0.11621447703255
H        -7.19795857580213   -0.08838548240075   -0.07969279990870
H        -6.52015809870259    2.27532316622870    0.11609768656792
H        -4.15384199737810    2.85278166018905    0.48987696602292
H        -2.46106903935611    1.07018145070778    0.73449982727800
H         1.25532834308421   -2.59186245575017   -0.51617930424646
H         2.79273710510784   -2.80136125057219   -2.27554836645371
H         4.55657184900011   -2.83335093184613   -2.02002405082602
H         3.50932740287657   -1.96873946636500   -0.86808055084027
Cl       -0.45564028833413   -0.61834107778357   -1.01228243879989
