79
 energy: -129.843760771611 gnorm: 0.000529044607 xtb: 6.4.1 (afa7bdf)
Ir       -0.12506896947886   -1.05911606813909    1.59615905876520
C        -1.57465628298265    0.14209222037049    4.40750325892708
C        -0.33692658300672   -0.06291801675329    3.60416396712619
C         0.56861058734305   -1.15732363287610    3.76328096705893
C         0.45704749935447   -2.19568834825567    4.82532822838450
C         1.69910786925353   -0.92954193931766    2.90277999665010
C         2.96755967148399   -1.71494330561927    2.90034467605684
C         1.51618547104983    0.33307187362914    2.25477409452434
C         2.54610243479228    1.04314575433743    1.45112119501546
C         0.23234366627558    0.85147245758177    2.64771169909861
C        -0.27286593711304    2.19336504808805    2.32323990731553
C        -0.60502658119689    3.08071928389533    3.34569972795482
C        -1.05598742251134    4.34510416821297    3.01624530490332
F        -1.37291343426848    5.19864271090626    4.01094996267146
C        -1.19903301072353    4.76972428152145    1.70681684672501
C        -0.86127695188280    3.86550969532831    0.71435636333796
F        -0.99456123800901    4.24097429445483   -0.57338791633718
C        -0.40275151231871    2.59243862685821    0.99317472618879
H        -2.20837718203469    0.90827066063351    3.97024940273186
H        -1.29930691049429    0.45345647739766    5.41579658437509
H        -2.14050520490268   -0.78230140859523    4.49491595642491
H         1.18771494719060   -2.98568280720239    4.68360784727995
H         0.65062582466343   -1.72427546131970    5.78986228375326
H        -0.54235935123176   -2.62251046894086    4.86352726703620
H         3.58671389337531   -1.40122657898218    3.74134405298447
H         2.77364764454093   -2.78038004162893    2.99803484989067
H         3.52055041347448   -1.54562625960457    1.98120364670087
H         2.77057581020810    0.49949562669510    0.53443899029268
H         2.20873460682107    2.04083710574705    1.18334553878255
H         3.46585055831174    1.11760828364209    2.03028420526196
H        -0.49200209424733    2.81030277014823    4.38237554481215
H        -1.55103194053587    5.76004603306481    1.47113791190250
H        -0.16559705129296    1.91672317768731    0.18582005542572
C         2.70635142776729   -8.66906967606368    7.73942617253616
O         3.65210990083951   -8.12188519679503    6.84450913125007
C         3.20455486865871   -7.48405425937090    5.73059122830856
C         4.19005669056636   -6.97734022565265    4.87825149729253
C         3.84458957190434   -6.32261094628257    3.71781033850256
C         2.50478716031829   -6.13778914059845    3.37156050231833
C         2.13839522725819   -5.43621357660307    2.13287011589658
C         2.85650121419158   -5.63936197908124    0.95373592217598
C         2.50030041480067   -4.98439751837624   -0.21185981370357
C         1.42818529561136   -4.11068286899078   -0.22938767750426
C         0.71902013520111   -3.88361937415993    0.94803531394215
N        -0.35004518821420   -2.96610385636234    0.95113273090103
C        -1.42410673877070   -3.22316699725089    0.27495166752989
C        -2.42049751286352   -2.19911575574414    0.22768416877921
C        -3.63678376222480   -2.28716741426547   -0.45702108948829
C        -4.48216065865136   -1.20327070896881   -0.47178335470369
C        -4.10491444093364   -0.02651018662090    0.20002297828803
C        -4.94731257538642    1.13873651741248    0.19586703199003
C        -4.78009680964727    2.39732544514853    0.73946829000565
C        -5.93278115285770    3.13012613542256    0.40408510336230
C        -6.72255250915270    2.27692412466224   -0.31588887495381
O        -6.14003130939773    1.08388484904893   -0.44497618260037
C        -2.87857623688038   -0.02390100275486    0.87415771506110
N        -2.06807987626224   -1.06865193230703    0.89387960384873
C         1.06677298125267   -4.54737261937515    2.11800487002508
C         1.52944146291850   -6.63651578386720    4.22916399764625
C         1.86619143485705   -7.30674857933110    5.39140440027079
H         3.28874842228939   -9.12326556698077    8.53882815597298
H         2.09685877914403   -9.43690357845393    7.25347329506182
H         2.05868806793784   -7.89321951403083    8.15800272453616
H         5.22410284715584   -7.11526946566485    5.15175331478678
H         4.62331594930247   -5.92934178070045    3.08205392463418
H         3.68361895305192   -6.33179431621058    0.94802984886882
H         3.05778600350391   -5.15988315037484   -1.11892233918927
H         1.15272615658408   -3.57989595292259   -1.12669599802214
H        -1.55460237886407   -4.16530927928744   -0.24462901239553
H        -3.88769666676742   -3.19756223304094   -0.97701677514637
H        -5.42315721520604   -1.23695514714118   -0.99709915367451
H        -3.93700811725986    2.75511917832243    1.29362262401175
H        -6.14956556056524    4.14656270083712    0.65885338565516
H        -7.68491356774877    2.40793933781993   -0.77002676042342
H        -2.55353241340319    0.85933059389596    1.40203365186183
H         0.48799651167708   -4.37823306255655    3.01108338074292
H         0.48581848240359   -6.52970669464249    3.97475734916130
H         1.07957714655194   -7.69106863426515    6.02076152316478
Cl        0.41832834539491   -0.61780812032563   -0.67695712860304
