67
 energy: -118.176984726971 gnorm: 0.000605968283 xtb: 6.4.1 (afa7bdf)
Ir       -0.69776940685885   -0.92527756610895    1.50292491259367
C        -2.30219438518540    0.76073826845651    3.99233243634446
C        -1.03134960516741    0.22459037662503    3.43311803979842
C        -0.47401519261986   -1.06219879821708    3.72493458131250
C        -1.03969456118183   -2.04142435960416    4.69395816060078
C         0.84906216738879   -1.11595307070673    3.14888468226933
C         1.86904492040169   -2.15818468775623    3.45018439680150
C         1.06723251446619    0.08663513396260    2.42550019475024
C         2.35130604061006    0.53325415061253    1.82152004663572
C        -0.11782294616504    0.92012706686277    2.58116106627489
C        -0.17482121398982    2.35321041979396    2.24141845500557
C        -0.28626609658502    3.28277656764912    3.27431180966447
C        -0.27811487027769    4.63042391329768    2.96765342106095
F        -0.38002310486735    5.52279771577329    3.97368771267994
C        -0.16886704694764    5.09911964483589    1.67055129327597
C        -0.06876886954228    4.14992728442696    0.66808197642152
F         0.03265441039164    4.57039927808695   -0.60882741179950
C        -0.07043000527304    2.79169991790475    0.92455912278579
H        -2.57417171324315    1.69699536876415    3.51353797154976
H        -2.16774696811775    0.94492802980682    5.05842980519157
H        -3.11662720896024    0.04795566535233    3.88527202396882
H        -0.70063338919465   -3.05043003720253    4.47784202645213
H        -0.70269451486352   -1.78154429271416    5.69822897653400
H        -2.12555591235651   -2.01866970278319    4.68629090224132
H         2.36729686681471   -1.89416336259685    4.38386864324353
H         1.41459810323848   -3.13690289446830    3.57617129642460
H         2.62275065859649   -2.21517891415602    2.67065025789440
H         2.93287328175627   -0.31135081965259    1.46308872336535
H         2.17850297569246    1.21901930212541    0.99714354746335
H         2.93698129231281    1.05393330835080    2.58011047701274
H        -0.35245708087286    2.97258310984982    4.30428347396993
H        -0.16100244246084    6.15365646560606    1.45110527732988
H        -0.00622273567098    2.08889953770619    0.10847664002406
O         4.53920274657658   -6.05643019534895    0.60340692622697
N         3.45020157250608   -6.44583205618000    0.98160583938100
O         3.23366322735006   -7.57181555624132    1.38891445234347
C         2.35308144683525   -5.52047694962295    0.94443293987531
C         1.10569097815789   -5.91808708228147    1.41798235757118
C         0.04916930931773   -5.03208678106252    1.37040162131790
C         0.24163119341072   -3.74561380383254    0.85863136551405
N        -0.82144090557825   -2.83736900616156    0.80345364923338
C        -1.94134777457503   -3.17735662063013    0.24096112016013
C        -2.96885710709372   -2.19102329684751    0.19946107309549
C        -4.21559002700298   -2.36003429429093   -0.41423155121053
C        -5.10789122743973   -1.31563550952603   -0.42753995583352
C        -4.74745564952016   -0.09324083971482    0.16927711079369
C        -5.65188020734729    1.02128032142158    0.17507799692384
C        -5.55061742230646    2.29191943929091    0.71131105166183
C        -6.75378091391915    2.94896192527046    0.40392767174208
C        -7.50682290935961    2.04434725166657   -0.29510539047586
O        -6.85630243216360    0.88991680631746   -0.43455520958024
C        -3.47939381239632   -0.00265913896713    0.76164765336120
N        -2.62744283137615   -1.01245975248701    0.78729836680879
C         1.50004446179345   -3.35181255204696    0.39686260177282
C         2.55328364323238   -4.24116567112195    0.43085850868656
H         0.98288309821119   -6.91531472047571    1.81137941320064
H        -0.92001657396749   -5.32348426311039    1.74367025786091
H        -2.07331215585888   -4.14851471011840   -0.22198463014521
H        -4.45497789259588   -3.30476699029645   -0.87483799021791
H        -6.07572601053637   -1.41451366961618   -0.89242481069960
H        -4.72496188810606    2.70091253233226    1.25436750225948
H        -7.02768281441000    3.95113486617060    0.66056704567192
H        -8.48672073877117    2.11506749011709   -0.72499903777947
H        -3.15638684754344    0.92026418256697    1.21778460870507
H         1.62168866067246   -2.36155581712794   -0.01518690129612
H         3.53048226516228   -3.96820983728891    0.06382382007513
Cl       -0.14123742266108   -0.33736572064492   -0.73976041614630
