58
 energy: -87.534369541431 gnorm: 0.000564211811 xtb: 6.4.1 (afa7bdf)
Ir       -0.84429726499737   -1.02941646107775    0.98079163733094
C        -1.97118457182133    1.44169752000261    3.08436809682906
C        -0.87818430963402    0.54143482316559    2.61577975603863
C        -0.59691608546470   -0.76562976149370    3.17062153582925
C        -1.32888810052043   -1.38109623779576    4.31513344535293
C         0.67348538620914   -1.19888478764288    2.65613635478877
C         1.45015938016864   -2.37358998547069    3.14089716589861
C         1.10604514561125   -0.23791336853521    1.69696574885486
C         2.43947300684885   -0.18119113241208    1.03171870101773
C         0.15172381283561    0.85920915310983    1.69788802451362
C         0.36970503415589    2.14883265425900    0.98341472174722
H        -1.64711771718315    1.94108770899193    3.99850743388300
H        -2.87620186808550    0.88388381672074    3.31256798961716
H        -2.19605660326715    2.20812619948989    2.34746733568449
H        -2.39695194527266   -1.19251668961481    4.24776450729571
H        -1.16265872566747   -2.45367033194229    4.35736510652472
H        -0.96761041172493   -0.94475878672970    5.24718200541767
H         0.79566727632342   -3.17990391996912    3.45993916643215
H         2.11945886224397   -2.75078847599211    2.37282160949338
H         2.05227773597348   -2.06573390644515    3.99626280559300
H         2.34964582643478    0.21314499826479    0.02229685526424
H         2.90181417524207   -1.16301732501960    0.98944722468380
H         3.09362556413021    0.48373840584950    1.59679315063163
H        -0.48795051073253    2.80783337203024    1.07625398325258
H         0.55900450637164    1.97236576605464   -0.07374516765553
H         1.24254953517475    2.65007153954045    1.40162916412966
C        -2.12055331011710   -3.41033119958192    0.05676555004197
N        -0.95584892819196   -2.96466556896580    0.41318091368308
C         0.16098756778837   -3.81168720128074    0.38733608041010
C         1.32984853647603   -3.37541752567627   -0.23529634772977
C         2.43427580778484   -4.20538505175323   -0.28015952616774
C         2.39126655193022   -5.45991559786932    0.31064309341197
C         1.23261275362168   -5.88915048174448    0.93976069546124
C         0.11446467283486   -5.07621162325612    0.97393718874539
C        -3.20314699636042   -2.48005153076483    0.08061446666056
C        -4.50100012938731   -2.75023928218718   -0.36718849249365
C        -5.43655059513998   -1.74384520681578   -0.36888200446764
C        -5.06721012296510   -0.46006894713793    0.07066579254308
C        -6.01101860067784    0.62573545853127    0.06130880333022
C        -5.89523038569377    1.95460308099427    0.41615072308630
C        -7.15391492881804    2.53862273651511    0.18313612247475
C        -7.94986976670833    1.53550796349028   -0.29464357706064
O        -7.27451897747362    0.38687474459566   -0.37066029499964
C        -3.75335527915148   -0.27603137322010    0.51684762443536
N        -2.85718548452173   -1.24786523014896    0.53500971732096
H        -2.25849612450426   -4.42487434585728   -0.29862364790082
H         1.33884164578411   -2.40572512736178   -0.70793030335420
H         3.33186151013684   -3.87345658220486   -0.77875493194502
H         3.25858868594271   -6.10055778797317    0.28017327315688
H         1.19876097782104   -6.86223507679482    1.40464116892468
H        -0.78485958055216   -5.40282088725790    1.47344792100285
H        -4.74561505398064   -3.74027277744857   -0.71617760729117
H        -6.44382178982320   -1.91854622125645   -0.71131328123184
H        -5.02584387085380    2.45326800805193    0.78993515705660
H        -7.43398635426794    3.55871608494281    0.34472168451125
H        -8.97671189165266    1.52645365460603   -0.60321728603350
H        -3.42832718355686    0.69241362549264    0.86243555622129
Cl       -0.62908948907299   -0.44943551800218   -1.33090759025545
