77
 energy: -123.775639601899 gnorm: 0.000302077815 xtb: 6.4.1 (afa7bdf)
Ir       -0.81211137457709   -0.41606078263919    1.42962546550802
C        -2.00388481205207    1.58467768360387    3.97698456103417
C        -0.94233367366508    0.68478856853268    3.44839857181543
C        -0.91568362624774   -0.74154974731985    3.64764802296173
C        -1.91772918005903   -1.51643639658788    4.43475225389664
C         0.35896646741395   -1.22067938902154    3.21751351796489
C         0.93024540755415   -2.55897342696765    3.51936961081389
C         1.05362010924141   -0.13960721696205    2.59419917457169
C         2.47564828842440   -0.17041780774575    2.15420062594328
C         0.25699005336059    1.06423538685651    2.78364189409477
C         0.76628627492619    2.43195026994306    2.59245639035627
C         0.81323984936169    3.29362836209630    3.68717782412159
C         1.33755742510044    4.56157861028746    3.52237810466750
F         1.38089613601816    5.38720584628440    4.58839079907858
C         1.81998004393115    5.01692628759873    2.30860225738993
C         1.75698121746508    4.13797628641317    1.24101220970329
F         2.20950004037049    4.55116530865038    0.04047806556331
C         1.24259088949242    2.86065194890264    1.35520071962614
H        -1.81522110270549    2.61468346290901    3.69202250330593
H        -2.01479353412821    1.51667493157782    5.06512662845504
H        -2.98834649721829    1.28606794031691    3.62154861760721
H        -1.99473433661360   -2.54008050617670    4.07511229488370
H        -1.61074842902104   -1.55082478501507    5.48070689403091
H        -2.89781237403636   -1.05160225618890    4.38235283272170
H         1.47828399014158   -2.48896865291579    4.46018705233832
H         0.15262119534900   -3.30726199902884    3.64261791365872
H         1.62664407153588   -2.88554963140671    2.75151409926550
H         2.74218443131791   -1.15476264916741    1.77871814965589
H         2.66444542261019    0.56937059531669    1.38235093160848
H         3.11763978691076    0.05544962079558    3.00662658937945
H         0.47344291057164    2.98304980484411    4.66145489309753
H         2.22647082262684    6.00842436401491    2.20014553485688
H         1.18856532430250    2.22399627502054    0.48522473664799
C         3.34940864909368   -2.47121877762969   -1.62626023692214
O         3.14375604076355   -3.70593538083434   -0.96048140915259
C         1.99774497675033   -3.89799432895835   -0.28266352285051
C         1.83515398307166   -5.15544930560357    0.31658303524797
C         0.69812438777625   -5.44478175658960    1.03989042211332
C        -0.29739257676720   -4.49188365072440    1.15746181821704
F        -1.39544830145567   -4.77306822467455    1.90262179732498
C        -0.16662277187112   -3.23188498166411    0.57175827296414
N        -1.16064816409587   -2.25062209787723    0.69013556220268
C        -2.40560331676651   -2.55260812529844    0.54013817308621
C        -3.38680998313734   -1.50775405932273    0.58684707942597
C        -4.72833896743466   -1.81298621209375    0.45683376415605
C        -5.64210336504800   -0.75817974775445    0.46303133867813
C        -5.15381468943181    0.51535168169934    0.41642539078329
C        -3.74827298441768    0.78053306939516    0.39773809330427
N        -3.35441064818531    2.02353471020144    0.09465986932136
C        -2.08035273349439    2.62559254190883    0.40965321652222
C        -2.30938284766231    3.94044570057307    1.16076270468335
C        -3.15964860258815    4.90071464563683    0.33470509660862
C        -4.47083002079398    4.21234106821717   -0.03466737036454
C        -4.15317306921882    2.90179675008549   -0.74926918926188
N        -2.89056828967661   -0.23609821753063    0.66807285915548
C         0.99814583584182   -2.94040905179903   -0.13768505645975
H         4.31510063005816   -2.56531466501222   -2.11777392115744
H         2.57367825670383   -2.29113381293714   -2.37394326206586
H         3.37741656507695   -1.63845989864481   -0.91974216826261
H         2.61794632474762   -5.88645221301395    0.20150863583903
H         0.56822237615826   -6.40263805577569    1.51669247227554
H        -2.72524036619659   -3.55881551344798    0.29270759410210
H        -5.04606628564083   -2.83899006493310    0.39286415910445
H        -6.70332046485742   -0.94611968299289    0.49145833038071
H        -5.83198593704457    1.35118890193327    0.43724340923197
H        -1.52513392205502    2.81584737873822   -0.51388894909146
H        -1.49774678312755    1.93789228285463    1.01918457312211
H        -1.34226215039862    4.38780593047058    1.39213604471570
H        -2.82852097851208    3.73548955407611    2.09783921438484
H        -2.62357481475000    5.18150685552056   -0.57390888495419
H        -3.35327845019016    5.81099996246981    0.90318402812256
H        -5.05261129484673    4.01531121178277    0.86740755156670
H        -5.06510171691963    4.84775291457848   -0.69119770836722
H        -3.54443783535303    3.12502760337316   -1.63349282685976
H        -5.05512352589929    2.40148825285223   -1.09314920659647
H         1.07934816856410   -1.96310431701779   -0.58512830439867
Cl       -0.06943755447467    0.23601381893618   -0.73053923049730
