77
 energy: -122.243753468894 gnorm: 0.000763352209 xtb: 6.4.1 (afa7bdf)
Ir       -1.30029738435379   -0.93275797632616    1.52333852609617
C        -1.56322989402360    1.23002307781776    3.69720434030783
C        -0.50877566461239    0.61351340842557    2.80913094499058
C         0.10586705656623   -0.68413534941361    3.12132239610688
C        -0.50580771146703   -1.63581498111648    4.12118976053041
C         1.49551300322433   -0.58090138907399    2.81175079198350
C         2.52559555710683   -1.62307515386263    3.01637298370811
C         1.75670742758551    0.70384070962556    2.29282407736692
C         3.07750492071437    1.13331012703312    1.76109496969030
C         0.56671954235363    1.43779691304242    2.28774733718353
C         0.36737747123054    2.78673308194128    1.79311294475807
C         1.28047886454423    3.80602704105110    2.07146785182612
C         1.04012238548892    5.07691575956589    1.58813636507791
F         1.92667769539206    6.05733970564191    1.86895693034201
C        -0.07252313244939    5.39299065084193    0.82779618765415
C        -0.95999197087776    4.36312892991482    0.56830730385630
F        -2.06270492375903    4.62629903439377   -0.16737443293149
C        -0.76896453290250    3.08025585187305    1.03530970937761
H        -1.08393428889227    1.58229556219755    4.61225764589754
H        -2.33464657986905    0.51854172158625    3.98176074180110
H        -2.03112870664711    2.08570431607710    3.21755679392300
H         0.08981226187535   -2.53859291976011    4.22235301650482
H        -0.56887071522087   -1.15500914749066    5.09781309192654
H        -1.53204046827895   -1.91670183035473    3.83620879031358
H         3.19118186254554   -1.31174194776942    3.82267831188797
H         2.08788249871692   -2.57992363448741    3.28016062167710
H         3.14232771933358   -1.74341446514207    2.12691753466720
H         3.53257776823931    0.32624179738737    1.19068450058452
H         2.97256389709271    1.99954017772507    1.11454483539877
H         3.75606465411224    1.38355895211697    2.57669956845849
H         2.15008493353568    3.62522506849571    2.68068897582284
H        -0.23655498511093    6.39056912409499    0.45640118116211
H        -1.47162768331367    2.30345130738623    0.78078127666924
C         4.47666510007377   -4.41926752138259    0.76223338162268
C         3.32314013910366   -4.51154426756973    0.12763228983723
C         1.99994376688276   -4.72594368853097    0.79531505678977
C         0.99813060496902   -3.64486004707745    0.38457441565217
C        -0.37108298085407   -3.87226690368689    1.04220839069653
N        -1.27775437489299   -2.81842483346859    0.66701056058773
C        -1.85710370652386   -2.86590407918167   -0.47811401941688
C        -2.73713867072459   -1.78165681297668   -0.82632132654203
C        -3.39103174462798   -1.66191026611125   -2.04758004008414
C        -4.22409937231884   -0.57337359623473   -2.25022496202377
C        -4.44240444014171    0.30684773121777   -1.20331953480782
C        -3.78841434771127    0.10786081086402    0.01240715708700
C        -4.15115909437084    0.90239880575124    1.19373796485950
C        -4.31363681328991    2.28605364209113    1.13570161719468
C        -4.76659556838623    2.97998546469892    2.24098034925579
C        -5.08760981433931    2.29583188898136    3.41225474904132
C        -5.62023431249212    2.99354670137075    4.61252410114851
O        -5.85341738563082    2.43935854120809    5.66431699318219
O        -5.81841627239518    4.29553163209731    4.40332397725480
C        -6.34453765164124    5.04984851393005    5.49183831886620
C        -4.92457183414833    0.91339070357863    3.47261529110113
C        -4.44870787533706    0.22173623652408    2.37619967970001
N        -2.90733745143753   -0.88311964655312    0.17112103194386
H         4.54504980539677   -4.49301463879384    1.83517398618489
H         5.40555756857483   -4.27786726463007    0.23673858348271
H         3.29047392720402   -4.43778495076351   -0.95163078546424
H         2.13264350130428   -4.73384339236635    1.87769882569608
H         1.61303450980616   -5.70440089417864    0.49576820157312
H         1.36919755339685   -2.65892238969569    0.66564851475939
H         0.87708887408385   -3.65221355671746   -0.69955945533831
H        -0.77092946978986   -4.84068538852693    0.72515851621287
H        -0.26417881930693   -3.87154742386149    2.12738347513847
H        -1.73176612911409   -3.70233146854707   -1.15855353868610
H        -3.22859878483970   -2.39595856480722   -2.81961539504386
H        -4.71718282578297   -0.42698524246089   -3.19817820560131
H        -5.12929519206538    1.13155016546482   -1.30235995323090
H        -4.07028776812109    2.82164963231707    0.23087760696042
H        -4.88514584424655    4.05037297852416    2.19906861554366
H        -5.66321852179028    5.00953991663389    6.34307772711146
H        -6.44703948711270    6.06857105711699    5.12804474380556
H        -7.31313421121903    4.64835623131956    5.79580959899001
H        -5.18566174573853    0.40340395202815    4.38745092092265
H        -4.35750531558851   -0.85512070316433    2.41131288709668
Cl       -0.06082240162608   -0.14198958839673   -0.25271518787706
