73
 energy: -115.897570707460 gnorm: 0.000780094895 xtb: 6.4.1 (afa7bdf)
Ir       -0.84176518241443   -0.90472243329562    1.50473174716810
C        -2.28770816672832    0.92593371922583    4.01148985330007
C        -1.12738256387139    0.14461181805760    3.50354528828044
C        -0.96423655827414   -1.27272934079514    3.70083263480540
C        -1.90026527049896   -2.13892055762325    4.47366536978916
C         0.36349374325205   -1.62272646453515    3.29345257929144
C         1.05517478122455   -2.91082787016037    3.56372195498874
C         0.97302832649282   -0.46767462251440    2.72018100475459
C         2.40915390261292   -0.37084853799139    2.34004345013498
C         0.05000829571521    0.64670651541109    2.87609893542464
C         0.42648420555417    2.05766963957248    2.70464691503045
C         0.27810694641027    2.93944299731200    3.77426262863193
C         0.67931015446722    4.25345158252691    3.62344476639942
F         0.53077330238061    5.09744591906937    4.66565042259926
C         1.22462735099426    4.73703275071585    2.44801219079416
C         1.35717403895478    3.83764765381253    1.40367301628725
F         1.87687912561871    4.27668472181401    0.23948167001384
C         0.97313776462187    2.51480673852247    1.50512689543546
H        -2.30515752264370    1.92698362295256    3.59373854055316
H        -2.21023879056384    1.00210572538362    5.09717724247222
H        -3.22619122177319    0.42464172822173    3.78666860267644
H        -1.75660589657681   -3.18740515721088    4.22862477817704
H        -1.71089271116162   -2.01198962191966    5.54017214848753
H        -2.93476864288373   -1.86851875430911    4.28039423592785
H         1.54305312073878   -2.84246031531703    4.53717460577233
H         0.35806618292360   -3.74314052195155    3.59387655716646
H         1.81949188816210   -3.11306370785358    2.81853246005599
H         2.67585500090252   -1.14015849221915    1.61871048298961
H         2.63923286590785    0.60100088027222    1.91459668655984
H         3.02370074544251   -0.51789762331092    3.22871064404381
H        -0.11656935477736    2.61189162702606    4.72167584056310
H         1.53237517598805    5.76453588771518    2.34958074323319
H         1.06053482202660    1.86164063531980    0.65037115443924
Br        3.31846264554235   -6.92021647290963    0.38674432544687
C         1.92965444105173   -5.59673866389713    0.46664602050613
C         2.19079286142102   -4.30371272368759    0.03521099863655
C         1.19464540886136   -3.34905693424369    0.10148575338655
C        -0.07085239135374   -3.68564636967386    0.58120333375671
N        -1.08474393386834   -2.71873128466974    0.64702279075785
C        -2.27974677806741   -3.01300955968210    0.26040452945160
C        -3.32038762146787   -2.03880878650885    0.42281600761572
C        -4.64859921528057   -2.39299783906849    0.26836049763702
C        -5.61884749121812   -1.44439806312842    0.58929255764905
C        -5.22111092905158   -0.17714386913064    0.91530968671139
C        -3.84307485416602    0.18556287467682    0.90166835117081
N        -3.49101565544803    1.47443863179082    1.01267521450805
C        -4.47569306459650    2.49349864771729    1.36635255012828
C        -3.79218529562327    3.83112806915926    1.62800889467521
C        -3.11455780829142    4.35269536294701    0.35762751920455
C        -2.56913404334730    3.17769948618253   -0.46159573563388
C        -2.25856600342313    1.99079668416042    0.44783259564788
N        -2.90640127959359   -0.79105703268995    0.78239566054431
C        -0.31695599376259   -4.99121613664488    1.01490991783837
C         0.68126496410516   -5.94425260653984    0.96206808982721
H         3.16423848045774   -4.04692303810815   -0.35016952156275
H         1.37772171796959   -2.34542676485606   -0.24854855341174
H        -2.51067876546338   -3.97552411722324   -0.18315038963729
H        -4.91367300941196   -3.38656876495671   -0.04880367819200
H        -6.66611825090559   -1.69977817393603    0.56173962730476
H        -5.96202514118103    0.56862144145094    1.13944365659547
H        -5.00210136588421    2.17724673975167    2.26972790753315
H        -5.20270715797646    2.62620731947968    0.55713390282621
H        -4.53917461987040    4.54398775070757    1.97697296285102
H        -3.05605376206003    3.71883392329799    2.42462790204356
H        -2.30657456368507    5.03146356097004    0.63218817631072
H        -3.82541277872076    4.92012250651952   -0.24359710721611
H        -1.65941280635304    3.46556895894480   -0.98737771821287
H        -3.29562673325678    2.86655384930792   -1.21354071243639
H        -1.57542648518247    2.31303859072110    1.23498199708980
H        -1.78251198838393    1.20509319294510   -0.13395798894788
H        -1.28321280231869   -5.25242650858843    1.41770639088279
H         0.49473177363266   -6.94983499268091    1.30402504637670
Cl        0.04112243794354   -0.26256502983221   -0.62688550590654
