56
 energy: -84.784819668361 gnorm: 0.000643898954 xtb: 6.4.1 (afa7bdf)
Ir       -0.63655040964364   -1.09829774923162    1.13726360940239
C        -2.50467811984925    0.34581342296663    3.89073684402708
C        -1.38543662381873   -0.43314839547171    3.29684740283580
C        -1.32176609126873   -1.87820652507632    3.18623498812519
C        -2.37921846604604   -2.83465917019543    3.61901875838105
C         0.04119440085040   -2.24569824753136    2.95080405440751
C         0.58679286244431   -3.62253611472711    3.09887362040218
C         0.79534600140411   -1.03504010499631    2.77111196381484
C         2.27718755062667   -0.91008599066173    2.72266725091577
C        -0.10232283462786    0.08391015048413    3.02115614958816
C         0.33114554504657    1.49854263214456    3.17272197014788
H        -2.27492652125801    0.50934494217793    4.94490700433651
H        -3.44867528541047   -0.18334457821326    3.82754276826652
H        -2.61287596107676    1.31912370365223    3.42025536125634
H        -3.36528641313387   -2.38287702127511    3.59654900168443
H        -2.38064498548528   -3.72943647194149    3.00201815137779
H        -2.17029256695142   -3.14065058041560    4.64531857561691
H        -0.09472821255222   -4.36890012533057    2.70025803909868
H         1.55102754195370   -3.72919462054385    2.61227621652762
H         0.71835592990906   -3.82188279246098    4.16328226179351
H         2.57505559808783   -0.12482377969470    2.03169005028717
H         2.74606268142955   -1.84351082576420    2.42775355133087
H         2.63956290765491   -0.63580602244229    3.71409692740683
H        -0.50795113328992    2.18115299416681    3.07208798855428
H         1.08245304925321    1.75625166847386    2.43034984316437
H         0.77093530242938    1.63304050135221    4.16160908977971
C        -4.67152185440920   -0.97484605612257    1.30613575114903
S        -3.89467803540358    0.65368812076348    0.99591245824417
C        -3.06917257354285    0.19517386258011   -0.49575616517117
N        -2.14886724506539   -0.76521667140966   -0.43936236011490
C        -1.68092717608845   -1.26990403802102   -1.61085829792141
C        -0.68208039113930   -2.28016330852293   -1.45670413664167
N        -0.15047804779589   -2.42082795808947   -0.28506090129499
C         0.86269160054051   -3.39169589005958   -0.12746395754794
C         2.19024683826374   -2.98575569392520   -0.02459715351251
C         3.18562635150514   -3.93792432358907    0.10397951786904
C         2.86358246024314   -5.28673804416496    0.13681775255499
C         1.54105307291123   -5.68659168909998    0.02602129738013
C         0.53656003353026   -4.74515049601080   -0.11359435735274
C        -2.08224405206024   -0.77934314016820   -2.85582595792501
C        -2.93730970007703    0.29928981762754   -2.90649013181186
C        -3.45190328230712    0.79438682594163   -1.70238456890066
C        -4.38593169907575    1.85667443253283   -1.70612376129172
N        -5.14569332805299    2.71433340375729   -1.73669529230075
H        -5.37562128667321   -1.18258103520494    0.50620324138365
H        -3.90670938188800   -1.74101523917446    1.36504527234709
H        -5.20716522107886   -0.87797723481068    2.24383990079102
H        -0.35163853944282   -2.87018186546090   -2.30346880031008
H         2.42069997359964   -1.93326523154580   -0.07358569346455
H         4.21625640923253   -3.62561397234922    0.17322367677698
H         3.64330541448187   -6.02466543852590    0.24171794774355
H         1.28925388105679   -6.73544908751822    0.04256607647220
H        -0.49510420149848   -5.04710177416305   -0.20717251837164
H        -1.68235422099957   -1.21800213049993   -3.75506402093675
H        -3.23265332359452    0.74548252415208   -3.84325261765199
Cl        0.46528777824013    0.53945643165002   -0.18619964278448
