83
 energy: -128.253038909052 gnorm: 0.000396422622 xtb: 6.4.1 (afa7bdf)
Ir       -0.32997590695374   -0.53464245481485    1.77205119268197
C        -1.57384148028742    1.20402534948275    4.49406305840365
C        -0.42467026728526    0.56806670876055    3.79691301666172
C        -0.04259902778158   -0.80909696565747    3.96503190877927
C         1.23306095725088   -0.99605566913650    3.33107780279103
C         2.14758480976831   -2.15078339003544    3.54974134626206
C         1.57025860226668    0.21971417736497    2.66016165107014
C         0.53998009095676    1.19883928252013    2.96122492519247
C         0.65984356232366    2.63831237624178    2.69124878379922
C         0.63095560946633    3.54282811518745    3.75097393011466
C         0.79890250491688    4.89392648032400    3.52263646735899
C         0.99914660641773    5.38357370746933    2.23311434270168
C         1.19356232939808    6.82172899001994    1.99521767994149
C         2.14958100106220    7.26505928723759    1.08320363654065
C         2.34409444176140    8.61703861013724    0.86791171189223
C         1.58236621462561    9.54866610336467    1.55440256072444
C         0.62487399204506    9.11919270641596    2.45902008922917
C         0.43361133576536    7.76769325960322    2.68070244818479
C         1.02004596145897    4.47509996064317    1.17600651911522
C         0.85440953928459    3.12324564174956    1.39958681726161
C         2.88668445480133    0.51734997284370    2.03186608371979
C        -0.69556708953456   -1.77184417046800    4.89745305993866
H        -1.36345223323319    1.22762635865445    5.56415278972588
H        -2.48848091402614    0.63188093360310    4.35409040818521
H        -1.73482733265408    2.21777517657760    4.14181089662062
H         2.66874487686535   -1.99488590287187    4.49524863821231
H         2.88943721541391   -2.22369134930459    2.76094799202823
H         1.60676997067761   -3.09076180403114    3.61567378696190
H         0.50797144620808    3.18355890248352    4.76082605732786
H         0.79987515115246    5.57862150507851    4.35740693631779
H         2.75953993905446    6.54627213104169    0.55546646708348
H         3.09420405357424    8.94661116322386    0.16327623942296
H         1.73396899583171   10.60464523694663    1.38476719658662
H         0.02535342606279    9.84192450067842    2.99364191508016
H        -0.32538948736451    7.44199432500335    3.37719436950723
H         1.15217780122449    4.83597504229887    0.16643469919479
H         0.84558535104402    2.43757730020917    0.56591279759654
H         3.20555880838411   -0.29117890493494    1.37892512030374
H         2.84248842039298    1.43844630775613    1.45894873087587
H         3.63364699185177    0.63307357119333    2.81810969973326
H        -1.77082100458521   -1.61935613167348    4.92853257445812
H        -0.48736239817254   -2.79850451149328    4.60844560468938
H        -0.30364300849059   -1.61729301790269    5.90336325718598
C         5.29854843177236   -8.38245757301270    0.88063617757863
O         4.01625479262010   -8.58828802212092    1.44093325991738
C         3.13048640172413   -7.57150663367519    1.44066412150027
C         1.87443971603696   -7.87358159369933    2.02799926601048
C         0.89272836457483   -6.93468009927249    2.09531920119800
C         1.09621973908983   -5.63535087687294    1.56996233382777
C         0.09302165961279   -4.65709394915849    1.60229394063049
C         0.32697989429829   -3.39252813441184    1.09503139828111
N        -0.66242512260367   -2.40913441284113    1.10400108856776
C        -1.87055518432312   -2.71029059326039    0.72915668682380
C        -2.81830246301114   -1.64761412352086    0.65608817366229
C        -4.08079926110460   -1.77254866663513    0.06702058692810
C        -4.86442449243070   -0.64902889170590   -0.06874926285401
C        -4.35945709717965    0.58649084643616    0.35701491753627
C        -5.18659790971419    1.72734938922027    0.26849744226787
N        -5.89584161303847    2.62621759804005    0.20076132500171
C        -3.07172128645287    0.64903059253960    0.91690042869799
S        -2.33303618956481    2.15860687651853    1.44040180303124
C        -2.44238814234458    3.17957816665026   -0.05706162742446
N        -2.34860583770769   -0.45575571466675    1.10211917100979
C         1.58477461319004   -3.07864895856148    0.53022840701312
C         2.55956690763321   -4.02882936765553    0.46082827119687
C         2.35464549782000   -5.32856431742353    0.98097846132727
C         3.35797916945567   -6.31076240153581    0.93042161751179
H         5.83957017080013   -7.59499671241765    1.41211352314479
H         5.23052555266045   -8.13355537016763   -0.18188917198658
H         5.82437332782241   -9.32767860506468    0.99868896962589
H         1.73253297229145   -8.86997164405262    2.41508511909651
H        -0.05893855462074   -7.17391710442045    2.54467071015349
H        -0.85444913969637   -4.89056386158732    2.06540805034744
H        -2.12620412308273   -3.70592150023419    0.38795121713192
H        -4.41799609825041   -2.73510331199622   -0.27985363573203
H        -5.85395264551035   -0.70124535796054   -0.49619485346819
H        -3.46318770370722    3.49003837745631   -0.24996622892953
H        -2.02509060292218    2.61996577111196   -0.88818017964987
H        -1.82139971015321    4.04440389654902    0.15631551568547
H         1.72816669200064   -2.09217573060780    0.11657400435337
H         3.50896861307717   -3.79858013444862    0.00188015915263
H         4.30255642056275   -6.05140865800381    0.47989447404805
Cl        0.10029692942990    0.13372189469604   -0.47781607166061
