64
 energy: -107.877889717205 gnorm: 0.000721774022 xtb: 6.4.1 (afa7bdf)
Ir       -0.83359049857713   -0.91514072599942    1.34073382093947
C        -2.25907742058982    0.94750898110832    3.86749963449598
C        -1.06034772736451    0.27507504649195    3.29610695734015
C        -0.68803946505135   -1.08835413144211    3.55951814150246
C        -1.40849936563263   -2.00185836521400    4.49154832960738
C         0.63362332490949   -1.29763271364741    3.02775390808932
C         1.51803448441150   -2.45406257913453    3.33561802897078
C         1.01541836992634   -0.12589873641655    2.31914560612152
C         2.36892717716813    0.14673054580041    1.76216454962955
C        -0.04232078912142    0.86193493885228    2.49086616035734
C         0.10716265279826    2.29432265613523    2.18164188951348
C         0.04711721438981    3.21839575946573    3.22387945779381
C         0.24554602907603    4.55737619093785    2.94580120032018
F         0.19392237118743    5.44315909002955    3.96177818615930
C         0.49575842295554    5.02475859085773    1.66780813220738
C         0.54199694222700    4.08304218608984    0.65439121941129
F         0.77701255688579    4.50332908410529   -0.60503723764960
C         0.35544381370739    2.73283523910543    0.88271079381874
H        -2.40873959268661    1.93085234456063    3.43184782339705
H        -2.11888595743943    1.05693625192691    4.94350129297966
H        -3.15626473100246    0.35142511128991    3.71523932570229
H        -1.16691288470422   -3.04094751021067    4.28749535163707
H        -1.10711917513749   -1.77939875483406    5.51578823424737
H        -2.48390725344965   -1.86431780944095    4.41963591874404
H         2.04440028225263   -2.24361464032130    4.26770389769390
H         0.95124065572876   -3.37130290429070    3.46836360493354
H         2.25973083355952   -2.60409871899508    2.55658704152465
H         2.76935797811960   -0.72929954135286    1.25854627885351
H         2.34452350897221    0.97541246773084    1.06114728631068
H         3.04301038360466    0.40430410664383    2.57987093906770
H        -0.12340160950775    2.90623165249148    4.24107621715305
H         0.64809453246242    6.07273818064149    1.47066959101679
H         0.37998371299366    2.03952088504583    0.05550993493355
F         3.20682944836857   -6.33157839229939    0.53586613574876
C         2.17130654293072   -5.47213639868952    0.57865447892468
C         2.32474415488183   -4.20637577799140    0.03382050386948
C         1.26475531030926   -3.32275730394260    0.09056885058760
C         0.05598660057595   -3.71630198772932    0.66755409055472
N        -1.01569111148874   -2.81219783173606    0.68774931580084
C        -2.19787385262218   -3.19877541244799    0.32570517104164
C        -3.22699686678668   -2.20496907250234    0.30426828884171
C        -4.54715014038899   -2.47714628877664   -0.10321982481548
C        -5.44931873477589   -1.45234354198754   -0.15812324139990
C        -5.02218293163542   -0.13781217046054    0.12606253414362
C        -5.88395115375279    0.97166572238893    0.01759782670634
C        -5.42259312424426    2.23974337875225    0.24763415704685
C        -4.07486845874862    2.44699517543205    0.58368855812482
C        -3.21612158134954    1.38992183948535    0.72158097472599
C        -3.66406304093107    0.07141389591278    0.51524013272854
N        -2.81603995617908   -0.97685638334190    0.65803235089957
C        -0.07763928888539   -4.99709987776355    1.20788225940323
C         0.98635337107240   -5.87794055579379    1.17194657617740
H         3.26017067969743   -3.93084079534367   -0.42618281273120
H         1.34440170887744   -2.33748768298479   -0.34271946209919
H        -2.38811351682769   -4.20809233198713   -0.02013254806928
H        -4.81970061541186   -3.48821140709116   -0.35682102126031
H        -6.47660454493049   -1.62569589054264   -0.43956517036137
H        -6.91074859864830    0.79992935972500   -0.26642015660918
H        -6.08436405332457    3.08669958251219    0.15694754152546
H        -3.71447717300062    3.45322904125467    0.72909610800906
H        -2.17384081731592    1.55470008134344    0.94225308910965
H        -1.00309137934109   -5.29174314558070    1.67791449719267
H         0.90852777687295   -6.86786158891541    1.59201676589038
Cl       -0.28996543006642   -0.26299441690662   -0.88548148651462
