81
 energy: -120.161829378607 gnorm: 0.000504595563 xtb: 6.4.1 (afa7bdf)
Ir       -1.04554143819652   -0.89835511839245    1.30372200123096
C        -2.03682282682782    1.52563563991356    3.63332689875934
C        -1.03689550184482    0.56111679655177    3.08767449126766
C        -0.99214233279779   -0.82016249185225    3.52284534131591
C        -1.92441742766661   -1.42007124211516    4.52079217981661
C         0.25127747414366   -1.38255735728647    3.09120264100817
C         0.82223308407993   -2.67729238497421    3.55353225756997
C         0.89591062010131   -0.41842914731965    2.25925843674606
C         2.27919593596354   -0.52939836941745    1.71022745604878
C         0.11623700940817    0.81260667029273    2.29821103308975
C         0.68037387453683    2.12447448374962    1.82408766776612
C        -0.22417446557540    2.96419370953779    0.91679170394662
C         0.53195209871421    4.20507720277829    0.44783833531065
C         0.98848545427090    5.03941100905053    1.64221939290389
C         1.86417794601004    4.20499902902183    2.57335874270218
C         1.11794993861246    2.95876157317855    3.04105770754606
H        -3.04909962448392    1.13722816418878    3.54299650639021
H        -1.98692357106092    2.48955932883120    3.14132391774584
H        -1.82960468925184    1.66705748931464    4.69491037415021
H        -1.90148435152381   -2.50520719620777    4.47741986105553
H        -1.62333341408183   -1.11448699130051    5.52350669084108
H        -2.94423428606953   -1.08215534005298    4.35723298372768
H         0.04605994687168   -3.41399089777042    3.74098188548440
H         1.52693312614120   -3.08466200512231    2.83428290080325
H         1.35385261477772   -2.50250172096739    4.48972587390971
H         2.59951979047642   -1.56574572618820    1.66833893527212
H         2.33480298983728   -0.11279766618616    0.70735229168278
H         2.97033623533992    0.02080741319610    2.34918986673653
H         1.57712345242047    1.89726325685040    1.24044777354260
H        -1.11829398789431    3.28699754097291    1.45094858550605
H        -0.52307961608557    2.36709690656176    0.05389526738791
H        -0.11013637743725    4.80431287475915   -0.20072778004282
H         1.40200632964099    3.90272761098405   -0.13916632710591
H         0.11488733422328    5.39981391888003    2.19097465957718
H         1.54416997769156    5.91243838426748    1.29460768230789
H         2.16022008912958    4.80104267485879    3.43911553943186
H         2.77447448391338    3.91064091301942    2.04584093071514
H         0.24344419729379    3.25695799277530    3.61977591509875
H         1.76185420654908    2.36026269581469    3.68826001556635
C        -7.75484761431158    5.18305505520819    0.37046794818663
C        -6.46926765245489    4.38274420999971    0.50771411352466
O        -6.79744698671510    3.00756308225545    0.33179125454343
C        -5.84949581537341    2.06750046575936    0.41808972253826
C        -4.48074520784003    2.32474747733778    0.67156268710621
C        -3.58488711555238    1.29856361802415    0.77339705347191
C        -3.98190701151338   -0.04170901677047    0.61252737453240
N        -3.07910410217423   -1.04000832547682    0.72082559272125
C        -3.45087052243265   -2.28880957746210    0.39857978515043
C        -2.38435581983694   -3.23625888215173    0.36862189807532
N        -1.19627110025364   -2.80703556876006    0.65791781254366
C        -0.10388697681469   -3.68182365240884    0.58220474353473
C        -0.19111208645393   -4.97260418043536    1.11151332225577
C         0.91582286378630   -5.78716014204726    0.99630331022772
F         0.85293629208459   -7.03298062537032    1.51386744416752
C         2.08953657009637   -5.39385845808190    0.37811525508954
C         2.16424578696810   -4.10455262607578   -0.15022833353062
O         3.23929870779484   -3.59239894904099   -0.77401713615970
C         4.37744383889238   -4.41138049243543   -0.97759335699915
C         1.06279112986707   -3.25100904755824   -0.03051005997785
C        -4.78124292725055   -2.62259672180869    0.06241878156088
C        -5.73158256596429   -1.64565236287333    0.04503992881310
C        -5.35158495496594   -0.30535226614931    0.29590887893134
C        -6.25656492235840    0.75526239426999    0.22646053289988
H        -8.47073663369856    4.87493590604572    1.12733529366447
H        -7.54085088514107    6.24061247823414    0.49285236528303
H        -8.19392840702056    5.02062369476290   -0.60989946173886
H        -5.74697816614823    4.69242527542606   -0.25751212806579
H        -6.03248346069180    4.53538719818531    1.50217975931747
H        -4.13300344198360    3.33934422148099    0.77572273965203
H        -2.53686786704007    1.49753223753830    0.92584939080235
H        -2.55749260753267   -4.25490333236586    0.04144371659487
H        -1.07407789914186   -5.32595681639333    1.61727095895960
H         2.90707844943716   -6.09244496841533    0.32298311771213
H         4.81737812531662   -4.72387709804117   -0.02703562706823
H         4.13043651095331   -5.28992269132641   -1.57880397475223
H         5.08665869470794   -3.78914711449862   -1.51889525091782
H         1.11499055485129   -2.26347738561858   -0.45901293846433
H        -5.01791573664511   -3.64818672410374   -0.16864836965672
H        -6.76224157368026   -1.86838415871527   -0.18224384660067
H        -7.29285618896661    0.56207701729395    0.00024990474106
Cl       -0.62873657407354   -0.22491077144328   -0.94120883953701
