76
 energy: -117.256685518914 gnorm: 0.000398270488 xtb: 6.4.1 (afa7bdf)
Ir       -0.61482222352157   -1.10154189468621    1.54045183745409
C        -1.64862180819461    0.90330203114231    4.22792545487657
C        -0.57814800765718    0.21382902201653    3.45654646756238
C        -0.27636028843379   -1.18060726195558    3.72299051448000
C        -0.94575350926584   -2.00522156236972    4.77061825207330
C         0.96474532719157   -1.49895858776665    3.08542148067131
C         1.81022944630815   -2.68813839546456    3.38061268989779
C         1.33225676437563   -0.37060809210485    2.28680779839468
C         2.62612549093323   -0.22079941489431    1.56273403601648
C         0.40267653272699    0.72098130146886    2.56222513888173
C         0.76053346766653    2.13565769070915    2.17364318616937
C         0.43438875187976    2.49088855587704    0.71556324421738
C         1.07149474271505    3.82776695897864    0.34901816627409
C         0.57860013777677    4.93288468343030    1.27913351011703
C         0.84724581269145    4.56442209633691    2.73557486042068
C         0.18411039342140    3.23064612427018    3.07435338144901
H        -2.54367582407416    0.28783884443561    4.27721379927545
H        -1.91311786734266    1.86837434986571    3.81992101906684
H        -1.29049762394638    1.04195410098796    5.24895316197839
H        -0.72614559504553   -3.06010537296091    4.63639581473747
H        -0.57874259495887   -1.70248532161444    5.75172406260489
H        -2.02266086303600   -1.86393074047559    4.75907780878345
H         1.21127043221314   -3.57213649348652    3.57994802806808
H         2.49944781522113   -2.90313660447427    2.56976617295401
H         2.39664106554196   -2.46798454196733    4.27382434484734
H         3.03981378126434   -1.18714557610832    1.28867707323342
H         2.50808091816049    0.37279124802105    0.66041801079045
H         3.34363332008791    0.28433089137604    2.21122049984837
H         1.85347290880650    2.18470425423881    2.27142811267603
H        -0.64565567868515    2.56475621909243    0.59468158748120
H         0.79165297146329    1.71441679867075    0.04055011843550
H         0.82729194964832    4.07703055315377   -0.68580925105977
H         2.15951048427730    3.74970764442018    0.42176652381119
H        -0.49506799169686    5.07351581883345    1.13488389031708
H         1.07444097378073    5.87433002727557    1.03389619131082
H         0.45731510407823    5.34469547642184    3.39185218254509
H         1.92492869305454    4.49752025775286    2.90325466755123
H        -0.88645961047443    3.33419799788498    2.89813505374984
H         0.35631268159179    2.98950390297663    4.12373099813696
C        -7.00033102109466    0.47754683906221   -0.25273501801999
O        -5.67033727701395    0.58309790005774    0.23539217380049
C        -4.90769984844024   -0.49942422570436    0.31701939124738
C        -5.26213019964421   -1.80395622016211   -0.03836910116412
C        -4.31716355488769   -2.80089058197194    0.08425592724454
C        -3.04630814993043   -2.50371201881911    0.57713228824988
C        -1.97289195056533   -3.44261752126529    0.58735365094089
N        -0.79345976333073   -3.02027265688240    0.91393974583515
C         0.29166987400225   -3.90365819587821    0.83227580477779
C         0.22463810525614   -5.17747730413328    1.41256321172514
C         1.29088460819052   -6.03830731827379    1.30633163980377
C         2.45225976927992   -5.67259433482553    0.61250106058284
C         3.60095088987740   -6.53571128440301    0.44799222974408
C         3.59886366702818   -7.90572057712845    1.03379733153029
C         4.65900395465523   -6.05946241245485   -0.24931013752570
C         4.69319478153387   -4.73444035580422   -0.82850494538097
O         5.61653430287969   -4.26595140759537   -1.45797993565769
O         3.58940777102659   -3.94658338576214   -0.64052065008568
C         2.50715868061052   -4.38956641766174    0.03845875492708
C         1.43576348096422   -3.50795267228069    0.15628682933929
N        -2.71047453636702   -1.24837642313491    0.98338774424084
C        -3.60572651110211   -0.29326535032356    0.82497448939297
Br       -3.17465459757264    1.47146709412868    1.26395585394363
H        -7.60046088030795   -0.17234468464667    0.38724398338140
H        -7.39568333560199    1.49027387794583   -0.22116363681078
H        -7.01157059123543    0.11059921412572   -1.28118911277163
H        -6.24440094939253   -2.02567294488626   -0.42208483891693
H        -4.54654138039723   -3.81057938604320   -0.21502539859750
H        -2.13554523399124   -4.45685296360699    0.24022493186067
H        -0.65825826265613   -5.46968397336603    1.95904990094940
H         1.23114965500425   -7.01316591945926    1.76083934964954
H         4.52818426953104   -8.41789460414764    0.80350157082264
H         2.77043556110253   -8.48633234993251    0.63238276831166
H         3.48633635213603   -7.85366900150020    2.11520082872545
H         5.54536097653429   -6.65130849375269   -0.41314611322849
H         1.48709609021083   -2.53663849206422   -0.30928885357286
Cl       -0.40677022683998   -0.54559543667898   -0.78493760938593
