76
 energy: -112.341426313983 gnorm: 0.000210170325 xtb: 6.4.1 (afa7bdf)
Ir       -0.54238801750365   -0.68793070500279    1.94275413530618
C        -2.08952073888970    1.51770291407532    4.10165254304295
C        -0.86084010305880    0.82742149492853    3.61392430059121
C        -0.42460154899089   -0.43888787184984    4.15549960884782
C        -1.10552143471194   -1.17133232971233    5.26096774697029
C         0.91547313541625   -0.68362739814288    3.69623387346429
C         1.81368091499993   -1.74150757688847    4.24026049425295
C         1.24863654152897    0.34116713243615    2.76906326562998
C         2.57966795196543    0.55939564835585    2.13092638210838
C         0.14312936958812    1.29761820432983    2.72623162041021
C         0.26085627108055    2.64320275027999    2.06415414511703
C        -0.89533186455473    3.00581835882472    1.12580946382209
C        -0.60575389302561    4.34106351315249    0.44544787616604
C        -0.41185559745106    5.44155369491554    1.48620189338871
C         0.71757225161454    5.07852423895212    2.44702932397272
C         0.43884910486410    3.74055629385949    3.12630705600898
H        -2.93131937962951    0.83081570027138    4.15755803636764
H        -2.36075790540608    2.36444092858860    3.48177940574880
H        -1.89632343358668    1.88212303182942    5.11154889564796
H        -0.78869273784656   -2.20916766760866    5.29902858724469
H        -0.84645298199348   -0.70140875745391    6.21054446844159
H        -2.18592545838020   -1.13600335768322    5.15336352287249
H         1.28193310507326   -2.67934406972544    4.37887902485387
H         2.67623660027395   -1.90793171957522    3.60187904172470
H         2.17692035643976   -1.41601738072072    5.21581362892409
H         3.21084977820818   -0.31904742181227    2.22538824591946
H         2.46641433506592    0.78882379442805    1.07327039322888
H         3.08161505476853    1.39875961689056    2.61230949977573
H         1.16625529319709    2.62614180143228    1.45045906246286
H        -1.83047823403317    3.09802378055042    1.67811273313550
H        -1.00869824605364    2.22192319573995    0.37554407803058
H        -1.43076532613774    4.60095826478273   -0.22097463029862
H         0.29630834869590    4.25339318221188   -0.16410210490157
H        -1.33827765054026    5.57807606025101    2.04924018832208
H        -0.18502426851937    6.38687818127159    0.98907698452160
H         0.82662366474272    5.85815955880820    3.20379639874012
H         1.65721379338735    5.01969451906772    1.89282232462173
H        -0.46493347917069    3.82443419338256    3.73004343197502
H         1.26519335302928    3.48149443902018    3.79086799880097
C        -8.41014732731552   -1.14651198271674   -0.94234164299137
O        -7.10771295040185   -0.92389958028488   -0.40209853999768
C        -6.25624597862720   -1.94073407904015   -0.44062185228595
O        -6.50579689768472   -3.02966346694853   -0.90057027990628
C        -4.93367748976474   -1.58573137457409    0.16239825554610
C        -4.66028086378861   -0.31085717009888    0.66660609851289
C        -3.41872953867465   -0.06095962606791    1.21800530026406
N        -2.46449018081864   -0.98722952684846    1.29971699976036
C        -2.70883738286909   -2.22014504047912    0.78765782730273
C        -1.58112662959111   -3.10355865237963    0.84341241269092
N        -0.49804976344222   -2.62817970184273    1.36456118134866
C         0.69889903528040   -3.42481876258871    1.34832610271642
C         0.58434779617386   -4.84350409397638    1.95287822052463
C         1.02018736644139   -5.47560425720765    0.61297474803973
C        -0.01537995954176   -6.38494701826616   -0.00426159691851
O        -1.17216187534514   -6.07292821929544   -0.18071812902129
O         0.49525027546232   -7.56489952243891   -0.32009463369206
C        -0.38458507154190   -8.53354500241467   -0.89406979398301
C         1.07984778263763   -4.06314439713322   -0.00719351259680
C        -3.93623129592031   -2.54818745498860    0.21642328757108
H        -8.91137316711644   -1.94687458641727   -0.39573380867763
H        -8.33933473092134   -1.42775485222241   -1.99412600334617
H        -8.94429688978617   -0.20759861451456   -0.82889886749138
H        -5.40781204681494    0.46387170762377    0.62752674525536
H        -3.17739431431252    0.91677608998838    1.60613853573984
H        -1.64456360300868   -4.10501805894796    0.42386442050890
H         1.50525356068152   -2.83130111620996    1.77464476812248
H        -0.42997990637804   -5.10440930029716    2.24658489182471
H         1.26607318844216   -5.03481730184408    2.77624077544602
H         1.97398904680849   -5.99786557167982    0.64569279679277
H        -0.92098720225480   -8.10211422903912   -1.74032974565879
H         0.24478769414021   -9.35843715095464   -1.21483351325708
H        -1.10620935797790   -8.86843962448723   -0.14723256423231
H         0.34393991751856   -3.88840021941865   -0.78836750915290
H         2.06116839530869   -3.77315516303128   -0.36995318347046
H        -4.10919166996626   -3.53441403146099   -0.18497907013485
Cl       -0.01844888956294   -0.25605228396202   -0.34706506634837
