72
 energy: -119.428818554379 gnorm: 0.000647653550 xtb: 6.4.1 (afa7bdf)
Ir       -0.66472046197436   -0.63484058515666    1.79337113004505
C        -2.09029658871378    1.07372786981822    4.49386204213871
C        -0.90977907439314    0.49539928105926    3.79823140564029
C        -0.55867999170951   -0.90229508482214    3.98284445065292
C        -1.29785751628369   -1.84977308384316    4.86514168742425
C         0.75791355338024   -1.10340326627122    3.46623533705181
C         1.64052029610446   -2.26587321728096    3.74584486335058
C         1.14141383811050    0.10564083021819    2.79838366358400
C         2.49152278382430    0.37370149358191    2.22924401299926
C         0.13434437113722    1.12674923904450    3.07072472182720
C         0.44829663613043    2.58406594231376    2.84018647916875
C         0.16928970161283    3.06714223600958    1.40945964762643
C         0.75744029749547    4.46028544294887    1.20631988291059
C         0.18178783152613    5.44642453330386    2.21903240565995
C         0.40715095622838    4.94331363789447    3.64240750424920
C        -0.21464181938105    3.55890646501227    3.81670064273191
H        -2.94525978294468    0.40572619901320    4.42452076337912
H        -2.37237177061676    2.04421807463908    4.10974754462386
H        -1.84070079364582    1.17618943472664    5.55095107275256
H        -1.00433629945151   -2.87695052425583    4.66939059271933
H        -1.06630547273099   -1.62242426928549    5.90615721949300
H        -2.37272301038081   -1.75901640829523    4.73510618101144
H         1.07774353979451   -3.18727941474896    3.86648242547324
H         2.38752851978691   -2.40506548463290    2.96992132782282
H         2.16345657354514   -2.06759284546771    4.68268495501523
H         2.94991480104482   -0.53737823956793    1.85676010244743
H         2.44023461070805    1.09166912882786    1.41613615848567
H         3.13267556301728    0.78154780159661    3.01189833737957
H         1.53183720150508    2.66705827602030    2.99497215421983
H        -0.90756924183712    3.10174185104948    1.24478397603596
H         0.60104542103795    2.37877774437785    0.68391724511548
H         0.54225101012743    4.80278450484218    0.19227116673406
H         1.84375917521632    4.41932436122614    1.31810161340235
H        -0.88993352465662    5.56235482119661    2.04193103643499
H         0.64788041984010    6.42550100201489    2.09011369486769
H        -0.04060297904100    5.63765813155989    4.35571275867363
H         1.47898917435873    4.89971017819279    3.84976480898969
H        -1.27943498738676    3.64180145725162    3.60236062041917
H        -0.08094748017587    3.21842789792919    4.84396179735212
C        -7.12352335557840    0.42230133350376   -0.20457209735915
O        -5.82142109503424    0.64314019334559    0.31941584568999
C        -4.94862129672378   -0.35473685263936    0.35568277339120
C        -5.15115476268443   -1.66155739925522   -0.09629181523224
C        -4.10659525120009   -2.55890869613177   -0.01506583966461
C        -2.89139551509500   -2.16638734249914    0.54621279739397
C        -1.73309152812188   -2.99978777978755    0.54811306298771
N        -0.60709188614538   -2.50962041146460    0.95559838517061
C         0.52325629180450   -3.34296720573078    0.95834227724329
C         0.42470839308103   -4.59883926521446    1.55530223284729
C         1.51668534260333   -5.44866989912978    1.60468871577333
C         1.35461928929407   -6.76918100384920    2.29540279213294
F         2.42507525220085   -7.56553131077395    2.19688991201984
F         1.11144360918579   -6.62046337863756    3.61762000452246
F         0.30608243329577   -7.47293858751695    1.81888932845260
C         2.73217022813176   -5.06028586612924    1.04549134963500
C         2.83320794199029   -3.82646764033943    0.44618877969525
C         1.74821822908221   -2.93898085407740    0.38156377403223
O         1.95718226453930   -1.78432174568761   -0.23052480076534
N        -2.70717762559250   -0.91774167102759    1.05053809933081
C        -3.68823829340894   -0.04823906580799    0.91708473425912
Br       -3.43907519631564    1.72625658026599    1.45641263323700
H        -7.07737409606271    0.11981208398416   -1.25294690375576
H        -7.65690428586585   -0.32882903835476    0.38193608065208
H        -7.63125943225079    1.38077015311809   -0.12224831930992
H        -6.09458078381315   -1.95902180297980   -0.52353808049666
H        -4.21689339987505   -3.56210358935483   -0.39328403701238
H        -1.79465994603475   -4.00453476519182    0.14448622280531
H        -0.50867227164850   -4.89728859594972    2.00937856370561
H         3.58258756488058   -5.72189260593997    1.08268804823363
H         3.76003165910031   -3.50568385509073   -0.00128980902763
H         1.16293675867599   -1.20506594609155   -0.33573258948197
Cl       -0.35933271663517    0.15175541837181   -0.46739655100240
