70
 energy: -110.784660866377 gnorm: 0.000287320982 xtb: 6.4.1 (afa7bdf)
Ir       -0.36980485310418   -0.64018643278158    1.77556249056089
C        -2.58386839469711    1.02492121752741    3.79875703652371
C        -1.22467656609445    0.45481590898659    3.59399441969858
C        -0.84025949078726   -0.88328372451804    3.94700287273044
C        -1.71821787221028   -1.88105214867491    4.62289776855543
C         0.59237515035079   -0.97160530235713    3.85868554025469
C         1.39689245540199   -2.04352687020059    4.50824188117988
C         1.07489625717953    0.23506139314160    3.28015994204911
C         2.50612700242087    0.64096452582240    3.17584387683729
C        -0.06445212509301    1.13513883752467    3.12852232421563
C         0.04701085693382    2.58187719659103    2.88036758777660
C        -0.42326879911246    3.46729096158918    3.84947679129687
C        -0.27559723172002    4.82611989399894    3.64817692682710
F        -0.73064035679842    5.67349583287476    4.59482050179793
C         0.31922489152365    5.35198814432627    2.51529956913298
C         0.77306118889404    4.44750678113562    1.57119455124191
F         1.35514636873872    4.92405239413319    0.45187814756332
C         0.65175680854189    3.08000250294043    1.72837533164836
H        -2.69789453266542    1.97467044840029    3.28522829681038
H        -2.73707363870827    1.18305208771797    4.86719812346952
H        -3.35820925356665    0.34136813677904    3.45788047042124
H        -1.36898677863754   -2.89393304186215    4.44381684198338
H        -1.70104068851940   -1.70372396194609    5.69881886508553
H        -2.74632395161080   -1.79266981327864    4.28377604381627
H         1.26015756789551   -1.95317807304701    5.58709811311771
H         1.06144494672135   -3.03678232449873    4.22069740109248
H         2.45525283956610   -1.93555025915332    4.29431450960995
H         3.12271247303177   -0.17696335278661    2.81311646810836
H         2.62351896178911    1.48838025568100    2.50734448145969
H         2.86711239075085    0.93136564897402    4.16350462268098
H        -0.87381646862619    3.11269204343021    4.76146666191296
H         0.42750084894347    6.41464941881516    2.37605525487824
H         0.99923541747865    2.41846714380444    0.94930602624018
Cl       -6.07772967202967    3.41551820752831   -0.34376267394033
C        -4.95272651012256    2.14177501628133   -0.02234734020558
C        -3.63208895219647    2.47423495137371    0.33326584890426
C        -2.72624904052674    1.49000091609998    0.61435501681483
C        -3.09169210938389    0.13058803891744    0.53539843706725
N        -2.19343829519740   -0.84196210695258    0.81277387392072
C        -2.50584664116079   -2.12291912909036    0.57020502618834
C        -1.38784426035261   -3.01681781135976    0.65625327936787
N        -0.23742643966644   -2.52538008684299    0.97616189994962
C         0.94237248399968   -3.36259599458649    0.79135924800924
C         2.22805010424135   -2.60868017182517    1.14679067880234
C         3.43577276316179   -3.25366372749717    0.46949682012217
C         3.37056628663518   -3.05482481467384   -1.04864322290763
C         1.91498383115394   -3.00141999595491   -1.52311972815432
C         1.03678841504058   -3.89934783014151   -0.65969237230987
C        -3.79257805714446   -2.52002671796520    0.15947182905703
C        -4.75353743174641   -1.56587825363263   -0.02772510317386
C        -4.41744172431445   -0.20167623864503    0.12482825467197
C        -5.33902045155092    0.82998296899091   -0.13235080743666
H        -3.34344209259580    3.51183594065785    0.37623146752338
H        -1.70569079554136    1.74173102542778    0.85673965920941
H        -1.51037479155475   -4.05416079215275    0.36405799863918
H         0.82950857668336   -4.22347057456279    1.46248900478077
H         2.14577988359539   -1.57535755214220    0.80734882294519
H         2.37340399840761   -2.61643164353629    2.22242149452547
H         3.45937509394963   -4.31750544686593    0.71274847358528
H         4.35316561816171   -2.81268702548740    0.85959243932527
H         3.87050157656162   -2.12613746053277   -1.32612951158427
H         3.89948022636884   -3.87060620949377   -1.54469193033059
H         1.53810803762502   -1.97985463390504   -1.47382305344543
H         1.85180438561296   -3.32311083007862   -2.56348376787767
H         1.46650284220335   -4.90120021563874   -0.63685521658553
H         0.04609861301184   -3.96863265613794   -1.10632772263124
H        -3.99731280549980   -3.56692057773634    0.00580160763169
H        -5.75801032461511   -1.83313960808629   -0.31629535764053
H        -6.34335696745745    0.57596333100205   -0.43118174689923
Cl        0.51276020202610    0.23799224013207   -0.25367736648432
