81
 energy: -115.502808906817 gnorm: 0.000806875346 xtb: 6.4.1 (afa7bdf)
Ir       -0.28780224044187   -0.12042995681711    1.31206338035587
C        -2.10464970299596    1.87258262282430    3.48622253768733
C        -0.87033468652348    1.11435831977762    3.14914378528822
C        -0.64477988195522   -0.26653593881116    3.52237203754157
C         0.73341061778721   -0.56009712124918    3.32368375795612
C         1.43042687271563   -1.74352703465522    3.89324463761644
C         1.32940893551950    0.56548312083095    2.65030662717356
C         0.33603394790083    1.63338273173770    2.61417096204417
C         0.63065471851118    3.04449939357962    2.33107423069944
C         0.26614031628998    4.01940298637260    3.26090180610105
C         0.56046843375044    5.34826491626162    3.03532258706014
C         1.22440888730788    5.75015660531144    1.87673858566042
C         1.51414649693832    7.17037785652301    1.63168499217106
C         2.72718236727640    7.56570138244467    1.07087792817996
C         2.99343465777068    8.90293008596067    0.84063905200805
C         2.05138786159200    9.86715693509579    1.16067277216986
C         0.84108546253775    9.48551414471271    1.71671912282268
C         0.57527793539888    8.14942587424502    1.95302093487825
C         1.60105692395414    4.77084563604345    0.95846858530296
C         1.31448291330349    3.43909944918623    1.18176327474803
C         2.78296338697256    0.77460571619080    2.38818126506549
C        -1.61263909484004   -1.11724935105864    4.27154112670477
H        -2.07895907449133    2.11673227188832    4.54963451656002
H        -3.00163449776843    1.28105546026529    3.31754581757964
H        -2.17539374197254    2.79946092790201    2.92373247889016
H         1.52651615265969   -1.58801263737531    4.96941311251786
H         2.42395551347518   -1.87166969674907    3.47837148521846
H         0.85881734156960   -2.65555816514955    3.74340454838296
H        -0.21935434381557    3.73288927098504    4.18008214061529
H         0.29009104883862    6.08456741829112    3.77722607363456
H         3.47540113857207    6.82379998779615    0.83345745932679
H         3.94036213579152    9.19606153885202    0.41068317910956
H         2.25937315567899   10.91119239851972    0.97760551392496
H         0.10112705667675   10.23288593032268    1.96460947666000
H        -0.37838416362068    7.86080804121516    2.37032754814099
H         2.10476611130768    5.05861230102360    0.04816103330360
H         1.59177458209551    2.70228463406696    0.44453381121595
H         3.01978981855901    0.63849282395130    1.33355715481891
H         3.05597313318484    1.79554189695029    2.65139990552041
H         3.38471230411627    0.08307762987524    2.97185916795236
H        -2.63696903502566   -0.90357374279475    3.97679354874539
H        -1.41088510192887   -2.17323319082167    4.11353455507689
H        -1.52174973135535   -0.91196971814333    5.33881224979582
C         6.44752926578209   -2.97105547371643    2.29137519831210
C         5.22610910049315   -2.55176911940892    1.48007611334299
C         4.49579340725901   -3.76109994254947    0.89820730531617
C         3.32451928070632   -3.39124076887605   -0.01407926041506
C         2.15059344802042   -2.76926802902955    0.74307806363674
C         0.96341700963996   -2.56786008912713   -0.19684408689059
N        -0.18845744709952   -1.95517237699379    0.41151689329491
C        -1.32142534062552   -2.55183519398102    0.32303771223669
C        -2.52959340300400   -1.83687008965429    0.64809838595043
C        -3.74537777856240   -2.47341817251295    0.84876269169398
C        -4.86399101257904   -1.70195763860661    1.12740096974458
C        -4.74164286011289   -0.32111804690494    1.07129073361093
C        -5.87603354163347    0.49600972350820    1.28579841819446
N        -6.81717326595131    1.12206811896238    1.47741317314502
C        -3.48388089837729    0.26947169464164    0.77027422517181
S        -3.52366388138651    1.98488866849994    0.50078284842983
C        -1.99627611096537    2.37257010344823   -0.38164351039833
N        -2.38295770869009   -0.48369550851271    0.67351777605009
H         6.95756965394408   -2.10039316685608    2.69770576903004
H         6.15760039484611   -3.61651205953447    3.11826124514574
H         7.15258652504011   -3.51647840207635    1.66734375060962
H         5.54250913090201   -1.89572466808011    0.66631937013331
H         4.55335602644286   -1.98444595389518    2.12432641366904
H         4.13906377415953   -4.39620515466749    1.71242051414457
H         5.21104543902538   -4.34825412397679    0.31791767147456
H         3.67197181684804   -2.69870613876362   -0.78282495394575
H         2.98321692470655   -4.29859134962545   -0.51757856180828
H         1.85958832438176   -3.43333747168293    1.55750920114948
H         2.44431188992705   -1.80408067682715    1.14944965110875
H         1.27456953117272   -1.88398727494757   -0.99573751033347
H         0.68106787386597   -3.52533972628832   -0.64619506951799
H        -1.40906528076267   -3.55810724594101   -0.07651565862966
H        -3.80556587580275   -3.54818975229395    0.81407742586857
H        -5.81857716365627   -2.15218402491602    1.35014152897208
H        -1.78647022206207    1.59392677098478   -1.10695196925790
H        -1.16772067996145    2.50124454821837    0.30747290267466
H        -2.19435380391198    3.31228631901184   -0.88982401185769
Cl        0.62336852672800    0.59082293754908   -0.77397912537843
