64
 energy: -111.658528480113 gnorm: 0.000542030961 xtb: 6.4.1 (afa7bdf)
Ir        1.27306545693581   -1.14064310022278    2.17974690699876
C        -1.33799126566738    0.38665518958526    3.69623554126098
C         0.09207826694178   -0.02183886399128    3.71364953641751
C         0.62018023924361   -1.18081756460024    4.34001946485904
C        -0.15992855094666   -2.17612284224773    5.12417841717581
C         2.06194749057386   -1.12636928071850    4.24135146125535
C         3.01471454344235   -2.06474579386528    4.87529950632535
C         2.43199477298748    0.10558109011923    3.58333096957498
C         3.81040828215534    0.64434708091401    3.47222844868858
C         1.21382542141550    0.77530939705343    3.22435844735375
C         1.12064501670029    2.12239775875728    2.64392706668779
C         0.43762124610163    3.12155975026309    3.33628258554170
C         0.40123252374028    4.39865715952241    2.80579328913664
F        -0.23418277071941    5.35917450995969    3.49410904178122
C         1.00023535815609    4.72121757854130    1.60112182046821
C         1.65502111552489    3.70350323072965    0.93039948390640
F         2.23802412346775    3.97497432808065   -0.25154037457173
C         1.73868340762376    2.41609613093814    1.42888212956381
H        -1.51002409584124    1.18952869485622    2.98535646400083
H        -1.61714029003487    0.73683578380940    4.69075951001467
H        -1.98836418866200   -0.45046920350611    3.45399094241224
H         0.32844236904219   -3.14575069776491    5.14136355580357
H        -0.23463510496372   -1.82366560641472    6.15372126472478
H        -1.16812369839290   -2.28690342484223    4.73647446684903
H         3.21612565371057   -1.71625365486500    5.89061632366836
H         2.60777543298582   -3.06960700409944    4.94501378507000
H         3.95936149745589   -2.09049527535001    4.33881609456341
H         4.46469708870576   -0.05492082960221    2.95573947299818
H         3.81381840062587    1.58795871289381    2.93525897818480
H         4.21354923721135    0.80161350072505    4.47262053551041
H        -0.03076463846401    2.92719206154118    4.28683430152696
H         0.94584112061917    5.71770549288683    1.19752239994046
H         2.25616826650185    1.65337058132719    0.86653937398928
C        -3.97862303247476    6.32388658665481    0.30859645267356
O        -3.98449926835895    4.95913548894683   -0.11132613670070
C        -2.92835192847067    4.21826124535526    0.18690758864711
O        -1.95596969745317    4.61165529998392    0.79250993264860
C        -3.06342318237372    2.80989940260072   -0.29342943970680
C        -4.14951979194841    2.36045037645739   -1.03721111116640
C        -4.16496772773202    1.02152542392964   -1.42606766606087
N        -3.21620521267352    0.16496247911419   -1.12014679635138
C        -2.17128988530441    0.58889025912642   -0.40967905384885
C        -1.13493347889164   -0.37035843125685   -0.07195985624469
N        -1.10918340375785   -1.56196040834429   -0.47603882830726
C        -0.21586614765066   -2.49416697591457   -0.07696583334460
C         0.52478537167214   -3.21686515825308   -1.02333813111695
C         1.42325131936801   -4.18045159130628   -0.62378541538867
C         1.56386544407047   -4.46872578300490    0.73136537293881
F         2.41977676080979   -5.43696979559532    1.10770993862769
C         0.80854070229776   -3.83575664454791    1.69849817711837
C        -0.07106214545719   -2.79236049289302    1.31618171905973
C        -2.05059099940401    1.90985120719133    0.02358230947738
H        -3.45985140831713    6.93264571411536   -0.43341325601641
H        -3.47334973254862    6.41887592495413    1.27094295466197
H        -5.02031186980877    6.62469619443173    0.38326824715771
H        -4.95103263350372    3.02915299257621   -1.30315623965296
H        -4.98350711606579    0.62221137152073   -2.00829763535445
H        -0.30884002594644    0.01679416251840    0.57047786871439
H         0.38696823483584   -2.99322983580346   -2.06864251788143
H         2.00657623276501   -4.73220957781192   -1.34401093437797
H         0.82734476886893   -4.20828370357150    2.71245434286512
H        -0.91762618499021   -2.56646595548980    1.96215133627606
H        -1.19592317903939    2.25282312726054    0.58831751894739
Cl        2.59967148930409   -1.12459079334871    0.35382488004131
