72
 energy: -111.802826048480 gnorm: 0.000511449225 xtb: 6.4.1 (afa7bdf)
Ir       -0.25632123428138   -0.92603191176954    1.21780674164336
C        -2.19788954358869    0.57129247258163    3.62343403631033
C        -0.85800728122673    0.08769035750836    3.19276175554961
C        -0.34967566781767   -1.23031800009723    3.44100770492808
C        -1.04939005720475   -2.28083456269585    4.23508948708264
C         1.03715739579051   -1.24833422104268    3.05393272027278
C         2.05060833386724   -2.26948139132298    3.44142097897977
C         1.35168520323531    0.01252434987513    2.46945210783225
C         2.72342388539580    0.46092283267643    2.10649243790456
C         0.16890834723846    0.84911260805695    2.55462778242369
C         0.17935554902987    2.30753213352884    2.35522469372715
C        -0.17305758744091    3.13811468531118    3.41823027805267
C        -0.10810648911734    4.50804283371310    3.25117468865503
F        -0.44633602363489    5.30208068237595    4.28808950003658
C         0.29140643964192    5.09747727849349    2.06498594808754
C         0.63174631651733    4.24642131653420    1.02788181349890
F         1.02155028870693    4.78450603808090   -0.14550621237788
C         0.58632925010847    2.87054350384689    1.14642961123239
H        -2.42749708386651    1.54280688254803    3.19584188027141
H        -2.20913267045026    0.65385270458214    4.71091395528065
H        -2.97911182636090   -0.13160797122529    3.34255544633502
H        -0.69301525410642   -3.27442245001911    3.97862824257256
H        -0.85816607157757   -2.11467830889086    5.29590395969506
H        -2.12312259645867   -2.23951720555525    4.07611835545149
H         2.56342755783111   -1.91502832418634    4.33697983382513
H         1.59380172110522   -3.22567103336628    3.67942946748901
H         2.80216421453802   -2.39537975923761    2.66619780103674
H         3.21991461389194   -0.27326986166207    1.47633755445125
H         2.70217793117896    1.41175246145764    1.58291734765454
H         3.31199239430190    0.57729955560342    3.01773608287956
H        -0.46758547526923    2.73389113215156    4.37247987898917
H         0.33754427774970    6.16801562284754    1.95459986516749
H         0.83976751667554    2.25237467842274    0.29829239955463
C         2.01510693549614   -2.71676153131001   -2.90902826922190
C         1.46493561479997   -3.71657604369477   -1.89607318402308
C         1.91836252691095   -3.44118470501006   -0.45464798195432
C         3.13315181321370   -4.28448870101704   -0.04013972889979
C         4.39024391207600   -4.00353218868064   -0.85544665348003
C         0.77420081291454   -3.75972976378695    0.54270281949223
N        -0.29842252542188   -2.80704576495509    0.45724662364909
C        -1.37732258857004   -3.14771602518152   -0.16329316675319
C        -2.39967880375330   -2.15921485897097   -0.33532428805860
C        -3.60004776827252   -2.42370002845875   -1.02333384530551
C        -4.51791356967601   -1.42374016278938   -1.16841529987408
C        -4.21314675284846   -0.13312555343071   -0.68160525896028
C        -5.09638419501692    0.94892338122239   -0.84984868265029
C        -4.74536700580049    2.20123218274732   -0.41504694960829
Cl       -5.82341618090238    3.53720628738535   -0.62667201993578
C        -3.49304863508175    2.42164422441915    0.18511392117421
C        -2.63068403737025    1.37918629298250    0.38079375671113
C        -2.96434069827082    0.07128602640018   -0.02130837662870
N        -2.11163643901188   -0.96072521818015    0.19141964901650
H         1.64061845616016   -2.94938340912527   -3.90373192575610
H         1.69547850899072   -1.71021715507435   -2.65185912492383
H         3.09957168958626   -2.73111581076195   -2.94346124461283
H         0.37567034619946   -3.65486442975859   -1.95154188940514
H         1.75207546603230   -4.73038935051579   -2.18204455321594
H         2.16420089638422   -2.37919797390099   -0.36040700261862
H         2.88084932164136   -5.34334657709718   -0.12973340903398
H         3.35874428466011   -4.08948741378940    1.01025899713957
H         5.23422376180078   -4.53921886184369   -0.42608924049012
H         4.27592993377337   -4.33279188869703   -1.88384799922488
H         4.62324631748639   -2.94143710443824   -0.85320386695095
H         1.17958321691915   -3.73554005576962    1.55268541766301
H         0.40041889538656   -4.76654807344670    0.33391003872763
H        -1.52174763418410   -4.14915793463365   -0.55499105139104
H        -3.77324328749045   -3.41261573646503   -1.41487081888073
H        -5.46069279259565   -1.59386048962067   -1.66402435318821
H        -6.04271732177276    0.78243647351269   -1.33888697011496
H        -3.21901092667931    3.42073560824495    0.48257179231417
H        -1.65831985536837    1.55996210896112    0.80604323218255
Cl        0.58078693326043   -0.08107990459545   -0.82445423739564
