59
 energy: -96.143518350137 gnorm: 0.000335497139 xtb: 6.4.1 (afa7bdf)
Ir       -0.85009889001959   -1.52663592199158    1.05170672505492
C        -1.84357071358133    0.80877713680121    3.48653356970067
C        -0.80952803805978   -0.02499649090123    2.81814479255662
C        -0.46950304802032   -1.36316679090714    3.24220019540159
C        -1.09446701704476   -2.07075368726325    4.39603287874730
C         0.76163391403077   -1.73328208942303    2.60073860504798
C         1.62074154919261   -2.88492731243095    2.98999293953067
C         1.09460971513449   -0.69620543791324    1.67482428144817
C         2.35457899829247   -0.56628722957129    0.89188771940461
C         0.11749287703298    0.36979515441475    1.81985418852373
C         0.27181504741384    1.71552758232426    1.19846726237255
H        -1.51793100447570    0.99693806383589    4.51037373670862
H        -2.80257003205646    0.29818420866430    3.53615389072439
H        -1.97692352648520    1.76113481145133    2.98481024189196
H        -2.15938863880200   -1.86370211998425    4.45238220232733
H        -0.94353936221914   -3.14441293557700    4.32909356335982
H        -0.63266609032479   -1.72214144979648    5.32055143287290
H         1.02835671122385   -3.72841679151475    3.33219201056864
H         2.25250514049409   -3.21317364311069    2.17009290897482
H         2.26496799963535   -2.56804494936942    3.81101651378595
H         2.13939292843477   -0.27992831365838   -0.13587167081751
H         2.91821342877266   -1.49444676933408    0.89616005369339
H         2.97032834304092    0.21768137956333    1.33315587934568
H        -0.62428973603604    2.31609593742096    1.31713209342563
H         0.48909174331659    1.62352943357756    0.13686523767250
H         1.10711504181040    2.23386289315191    1.67011331098538
C         3.35903568834245   -3.68346438682377   -1.79216648706245
O         3.28038809598289   -4.81453402628139   -0.94264954206985
C         2.16938421810450   -4.99057859857308   -0.20433459408668
C         1.09517164212171   -4.11070747698731   -0.13973189570306
C        -0.02060123637611   -4.41156478600567    0.64154566905183
N        -1.08822950891647   -3.50160195198655    0.64271596489992
C        -2.28949292591344   -3.92707222010335    0.41660183320960
C        -3.33005554060664   -2.95500306899094    0.31120619405834
C        -4.63353380494250   -3.25571809346720   -0.08351742553268
C        -5.53895255406103   -2.23987397104608   -0.30850758097658
C        -5.11202157052865   -0.91583977889846   -0.16778182121828
O        -5.83243253629666    0.17918838286864   -0.38007173141778
C        -7.18960903705747    0.06491046181856   -0.78412410816670
C        -3.77967829151420   -0.70189702102706    0.24614513919783
Br       -3.23078315978181    1.08502462354734    0.37365994922826
N        -2.92495764187939   -1.67108831215288    0.51631833193420
C        -0.07551178984800   -5.58474066524377    1.38732267041952
C         1.00081877557940   -6.45613602195269    1.35613707423200
C         2.09457982008126   -6.16148246257531    0.57134756668900
F         3.13232857505598   -7.02394355796103    0.54260654987543
H         2.54629154993983   -3.68165438105868   -2.52216962609828
H         3.34016682910183   -2.75457351927167   -1.21789396594051
H         4.31289071346930   -3.77580549656359   -2.30654330546702
H         1.08173761151207   -3.19940927543024   -0.71597984387916
H        -2.49391866045210   -4.97307162412306    0.21891176397061
H        -4.92020163000268   -4.28512817825611   -0.22351965487694
H        -6.54774589995422   -2.46520139979691   -0.61309926258142
H        -7.27025208893736   -0.44948047527749   -1.74396216637539
H        -7.77977881621870   -0.45446186299372   -0.02632833496331
H        -7.54299634263960    1.08848714310279   -0.88669054066538
H        -0.93266796044546   -5.80239531760151    2.00317536267180
H         0.99813034068875   -7.36835170778578    1.93023696187650
Cl       -0.55655020431804   -1.10588364153669   -1.28458170755954
