66
 energy: -97.015724335289 gnorm: 0.000638129181 xtb: 6.4.1 (afa7bdf)
Ir       -0.69681951665852   -0.61908519215888    1.34581549275352
C        -2.43384254731318    0.97458906703887    3.90760165462718
C        -1.18753454039209    0.35034828072893    3.38180782465960
C        -0.87216863898293   -1.04971842848234    3.52889033887143
C        -1.72351863570086   -2.03743671537576    4.25280379111912
C         0.50957334509652   -1.23270791696973    3.16719236054134
C         1.34381150229456   -2.42291708335082    3.49634263983794
C         0.99254285585629    0.00798193667770    2.66127318531545
C         2.39944389083103    0.33870729643748    2.30009172240363
C        -0.06331826033765    0.99530809899239    2.80563905058654
C         0.15851106858314    2.45854505820302    2.61101123891687
H        -2.44585508822604    0.86207919453478    4.99207725346055
H        -3.32250792701049    0.48634081140581    3.51369084355158
H        -2.48579206232241    2.03226140366614    3.67135681420964
H        -2.77824575846209   -1.82922183289159    4.09726081161579
H        -1.51465360459760   -3.05361349564354    3.93005599491325
H        -1.51949364920597   -1.97288968850964    5.32240138509069
H         0.74064468928448   -3.32033137733535    3.60036947526377
H         2.12567976380693   -2.58626787682967    2.75949580163440
H         1.82910727502559   -2.23776655443496    4.45597511888168
H         2.42932572197788    0.97937723308653    1.42157316342476
H         2.98187512514935   -0.55596210092896    2.10351987002991
H         2.86415332302217    0.87826452353208    3.12579419719162
H        -0.74004934723900    3.03391382013209    2.81430845067251
H         0.49098713005969    2.66725006990088    1.59502097079088
H         0.94300874603521    2.79422666261147    3.28933316089529
Cl       -6.24733387269914    4.03703163703973    0.10195455644198
C        -5.17168284007741    2.68081650760907    0.14163258407803
C        -3.90244159955289    2.83144765592872    0.72687840040239
C        -3.04604830152712    1.76742971069578    0.79127329282703
C        -3.40431213076277    0.51145543711576    0.26421295697949
N        -2.55384775117903   -0.54147842112898    0.34651194873910
C        -2.84595687309017   -1.66298058005682   -0.32832200083970
C        -1.80955434398980   -2.65041155020410   -0.31554125392733
N        -0.73361856884311   -2.39081072073219    0.34540832333802
C         0.34599673148645   -3.34562740211567    0.32276790074521
C         1.61592362452794   -2.75905319566680   -0.30521756988673
C         1.48567378516789   -2.59071836907235   -1.82262116607917
C         2.79780876295496   -2.13890860017065   -2.40187268062547
C         3.68922685705595   -3.05307888138948   -2.94822315089833
C         4.90898685726164   -2.63420003158720   -3.45191530276462
C         5.25367636991429   -1.29371311372515   -3.41072838704467
C         4.37235665940096   -0.37527450103511   -2.86358942412097
C         3.15405856107926   -0.79637070632977   -2.36141517704101
C        -4.05993098782709   -1.84275739661980   -1.02095859147932
C        -4.98412374057813   -0.83866301446335   -1.01705196792674
C        -4.66605248541382    0.38670500596214   -0.38899928521690
C        -5.54457117271636    1.48502739770666   -0.41638644874787
H        -3.61472799928496    3.79545067300627    1.11369121411458
H        -2.05640893953338    1.88633236764549    1.19807666341262
H        -1.93048858389501   -3.57177286419217   -0.87545839972179
H         0.56211477931279   -3.63377961242046    1.35248421107782
H         0.04395248457246   -4.23814396420387   -0.23451818314922
H         1.82841279996738   -1.78501866321835    0.13708570172880
H         2.44811022741626   -3.42996300650340   -0.08903400899853
H         0.71839187159093   -1.84469916208308   -2.03337710942963
H         1.19316711627508   -3.53910463142819   -2.27684793315942
H         3.42821893163814   -4.10154742975576   -2.98698851131421
H         5.59201364947016   -3.35459015866553   -3.87925984311754
H         6.20472824773173   -0.96576636024136   -3.80544208571664
H         4.63636958822112    0.67220588844399   -2.83232502401292
H         2.46631757031295   -0.07890744109417   -1.93894068166892
H        -4.23751113686237   -2.77492974449337   -1.53147986623647
H        -5.93909888930090   -0.95128227512242   -1.50596606057580
H        -6.50306974235524    1.37707232295568   -0.89791195363707
Cl        0.09923562358957    0.55050499958348   -0.56895729782702
