79
 energy: -125.916802151885 gnorm: 0.000324218391 xtb: 6.4.1 (afa7bdf)
Ir        2.65148593071498   -0.73567945603757    2.90798712568966
C        -0.08238792115979    0.78074024156312    3.98503792025878
C         1.31207288309092    0.32982714582410    4.23098896987765
C         1.68458961874167   -0.91376191275443    4.89384530664724
C         3.08769078971222   -0.90519330404405    5.10384199917947
C         3.86478206761644   -1.92678075828450    5.85502930824415
C         3.61242921937581    0.33045771141637    4.57236295581841
C         2.51021136557158    1.11386876142954    4.05451811050335
C         2.56831567803965    2.51884397572205    3.62721222330410
C         3.13801684727910    3.47307898908639    4.46971427741087
C         3.16005004146507    4.80343337070493    4.10119823981004
C         2.62775348760191    5.21783732004459    2.88090485361285
C         2.65764471558589    6.63479266434735    2.48873112218017
C         2.95538938849759    7.00293258222137    1.17773389800143
C         2.98338270112328    8.33568835185798    0.80983269527225
C         2.70649775934180    9.32222293013449    1.74249909010033
C         2.40704529554620    8.96754522541322    3.04798043907383
C         2.38670007088521    7.63579086361124    3.42003863310860
C         2.06771176199359    4.25640817520578    2.04004580984088
C         2.03187252711695    2.92627416540017    2.40723818569655
C         5.02871020873478    0.76709909527730    4.64628141453263
C         0.72741226197733   -1.93066593350973    5.40383773833709
H        -0.60564483420544    0.84739616558118    4.93913529590968
H        -0.61830571497857    0.07233684557757    3.35598833591303
H        -0.08905548093695    1.75519897081840    3.50628613968635
H         3.77274872447614   -1.72819298226336    6.92331692404933
H         4.91701492467972   -1.89439481759022    5.59051048116872
H         3.48133807031900   -2.92447395309570    5.66286618519887
H         3.54349125999047    3.17474637808258    5.42372215670273
H         3.61344093407654    5.53038452457117    4.75764280364799
H         3.18801526774778    6.24142297900649    0.44775978668573
H         3.22278676949541    8.60743828851780   -0.20822010100590
H         2.72470379550977   10.36278482226796    1.45331729440956
H         2.18783536939339    9.73315128053723    3.77798271187578
H         2.13681833995450    7.36818887998121    4.43619509227303
H         1.64367939100289    4.55919267908177    1.09479829383179
H         1.62798869376904    2.18570997918066    1.73468937981557
H         5.69983012350251   -0.02812753520607    4.32711542276521
H         5.19526410447890    1.64654670764484    4.03043368528927
H         5.27573826807560    1.00747224949614    5.68134983556968
H        -0.20752127915882   -1.90266720810846    4.85289052440551
H         1.15506919860176   -2.92813664510365    5.35336926002571
H         0.51201254787758   -1.71318280248935    6.45094256657486
C        -6.34315262970661   -3.74789856986660   -1.44959696711497
S        -7.59016448206656   -2.53051705728304   -1.96666309166410
C        -6.63584318553116   -1.07394639676461   -1.89275339501261
N        -5.37594723072122   -1.18272296362850   -1.52914577539572
C        -4.60649753998932   -0.09868371902172   -1.47570760306114
C        -3.21438772609446   -0.28740526923000   -1.07842117914244
N        -2.80716909059123   -1.38609811518702   -0.61524870930706
C        -1.54057796609272   -1.75045414179302   -0.27971432299745
C        -1.25363152845132   -2.10237220531003    1.04786436085693
C        -0.00272619352698   -2.57172289450248    1.38401777362487
C         0.96177856666039   -2.71894643396549    0.39648828459883
S         2.57015678957869   -3.31676194114141    0.86058639365221
C         2.38201087472229   -5.06853417627572    1.23407858088893
O         3.53703003607537   -3.15295362429343   -0.18490061972637
O         2.90697290755451   -2.72169457967981    2.17540349538240
C         0.68916908979312   -2.40533594506355   -0.92345443107306
C        -0.55377441763237   -1.91359990204109   -1.26311957959388
C        -5.08620370597150    1.17513268866039   -1.79032253243108
C        -6.41400415509164    1.30874737092258   -2.16190705312789
C        -7.22078994447582    0.17555242944369   -2.22258558905419
C        -8.57346824850045    0.27248445151764   -2.60281935177863
N        -9.67362100233623    0.36930899776150   -2.91636963021275
H        -6.84234477143042   -4.71092972602102   -1.46410000576451
H        -6.00216886799029   -3.49748653238795   -0.45174445910190
H        -5.51748672719107   -3.72392105318406   -2.15168882170176
H        -2.56921645319001    0.59163418400190   -1.18709565516757
H        -2.02344866268165   -1.98470829874109    1.79343056125663
H         0.23541861005209   -2.83146658307475    2.40429258500255
H         2.10522355928692   -5.57544519761428    0.31823833809934
H         1.61378827550131   -5.17823924875163    1.98823004563529
H         3.33332849745334   -5.43932016817002    1.59591514011717
H         1.46828293646434   -2.52011964610780   -1.66052954469015
H        -0.78193026424899   -1.65968944589848   -2.28652703422034
H        -4.44117395467685    2.03712660766549   -1.74024637139803
H        -6.83177526026520    2.27426424435809   -2.40639961693428
Cl        2.67787469246549   -0.19269715037080    0.73200038906976
