70
 energy: -122.035912743158 gnorm: 0.000874509502 xtb: 6.4.1 (afa7bdf)
Ir       -0.54366792167241   -0.76562685500414    1.47562859063405
C        -1.73279121625619    0.98073815279705    4.14460033142239
C        -0.56428981650133    0.44057373101232    3.39880882868212
C         0.04738255368308   -0.83683217316641    3.63029934877373
C        -0.34439830766073   -1.79640199056783    4.69913092577516
C         1.25739888529619   -0.90037472618832    2.84671907209271
C         2.32365344929336   -1.92867287228012    2.99622216699591
C         1.34272918553710    0.28466581438829    2.06490145411239
C         2.51259145260729    0.71667114193497    1.25517768074494
C         0.19254732631696    1.11821736168905    2.39206971905182
C         0.06515528471280    2.53976433090481    2.02380124560070
C         0.06399219890583    3.49914571418274    3.03500640172323
C         0.00208491414527    4.83624081137749    2.69061243786700
F         0.00596287418507    5.75725526497006    3.67522340113534
C        -0.06240687264395    5.26601053498607    1.37716199052599
C        -0.06431675836740    4.28796804581107    0.39764476901472
F        -0.13112709934567    4.66917776178870   -0.89354441454595
C        -0.00334923509746    2.93872537618206    0.69163375752394
H        -2.10307996568845    1.89343470504662    3.68669368584708
H        -1.42383552159293    1.20759303878135    5.16545101832087
H        -2.53744213198536    0.25153101754179    4.20454671966447
H        -0.03296267510418   -2.80743918633853    4.45275481452182
H         0.14606641428328   -1.50946493547965    5.63002758539752
H        -1.41747282863535   -1.78199073649589    4.86624375314696
H         2.96202026917920   -1.64317469250043    3.83279608475789
H         1.90626553441863   -2.90926217427863    3.20701483525010
H         2.93920104097968   -1.99004437018858    2.10430198626769
H         2.99416740199684   -0.13045355312862    0.77492745010417
H         2.21847582405268    1.43332596228910    0.49461529891822
H         3.23826327337987    1.19508370278396    1.91421686480723
H         0.13647478117044    3.22190448134405    4.07372630580628
H        -0.10734238812262    6.31312617277766    1.12829721258998
H        -0.03114835304030    2.21205790307429   -0.10542685592894
C        -8.73247136727691   -0.44489452135624   -0.40023867469436
O        -7.35804402024188   -0.35377373759019   -0.02316348041297
C        -6.61920337392278   -1.44417537507619   -0.15931043292359
O        -7.01750644479503   -2.50490216097274   -0.57700976682906
C        -5.20088218779009   -1.21848709658587    0.27287575457094
C        -4.74847046368360    0.01156105221389    0.75496165667039
C        -3.42575574232077    0.13426893591893    1.14117370031717
N        -2.56275336924213   -0.87701303259726    1.08017540250047
C        -2.98574566278955   -2.07270125194917    0.59569315283255
C        -1.95169268527479   -3.06241038754979    0.51866924373631
N        -0.76535797452412   -2.68867076041769    0.87714520250974
C         0.30661547825324   -3.59301193794236    0.80712981829556
C         0.21712866017160   -4.84368345478541    1.42080174293223
C         1.28067070034828   -5.72423980072402    1.33056863481185
C         2.41078578387311   -5.35959072194450    0.62182214041693
S         3.78322423527101   -6.52306376833585    0.48479196715835
C         4.89274014959651   -6.05916100804181    1.83897063887401
O         3.27384758347099   -7.85150602578258    0.72919887021083
O         4.45110937369860   -6.28534866895464   -0.77222928776091
C         2.50739634215046   -4.12340601562968    0.00808160047158
C         1.45797667014193   -3.22794847660457    0.10804915887155
C        -4.30214585237086   -2.27241957772221    0.18704568155015
H        -8.82258992169847   -0.87401426100557   -1.39915931959161
H        -9.11646540347618    0.57084446341425   -0.37779004431335
H        -9.27199738560310   -1.07647668822763    0.30699995112238
H        -5.41868381514742    0.85212357100944    0.82602665205491
H        -3.04639164744254    1.07543725007533    1.51036325513074
H        -2.15093933650728   -4.05565335125939    0.13351290412809
H        -0.67036233817895   -5.11095180415532    1.97325093242287
H         1.24143746855632   -6.70301178017903    1.78131072083458
H         4.35349740324865   -6.17569197955751    2.76960832304254
H         5.21129661879839   -5.03764891447846    1.67947859059031
H         5.74216133290555   -6.73088439691929    1.80627008965396
H         3.39355563924133   -3.88826885137710   -0.55907999311127
H         1.49507663875002   -2.26597575719342   -0.38033654594060
H        -4.62730780741559   -3.22627601959916   -0.19895851763719
Cl       -0.35681085127083   -0.23913544800907   -0.84370118928885
