79
 energy: -114.474412558466 gnorm: 0.000413845196 xtb: 6.4.1 (afa7bdf)
Ir       -0.34464964852712   -0.18672479969387    1.74385618716207
C        -1.91626425972708    1.59884145315890    4.17650038822799
C        -0.73515035480841    0.83798973242863    3.67939116998917
C        -0.50372220507593   -0.57925346319514    3.86698198037378
C         0.91232366054155   -0.83304558068625    3.62165498164086
C         1.63355364014233   -2.08824725295977    3.96858622980231
C         1.47579768380928    0.33294495547198    3.11404340266404
C         0.44447535143593    1.37752397279626    3.10747161573662
C         0.70326807532359    2.80735458232328    2.87636659813664
C         1.69279813767376    3.45383287201185    3.61478293249379
C         1.91888419397878    4.80497243217153    3.44685333458701
C         1.17532925850371    5.54832012510724    2.53143288783301
C         1.41826845332854    6.98775806664169    2.35581736261638
C         1.42030925339113    7.55855834422292    1.08463668386223
C         1.65106095372013    8.91216205814503    0.92160646977461
C         1.87618821381723    9.71851670221346    2.02544690822007
C         1.87246789571772    9.16191315917522    3.29413875741918
C         1.64887329046073    7.80734646235871    3.45879506901042
C         0.19323076050184    4.89572133574955    1.78854092896875
C        -0.04231724903393    3.54674154834352    1.96213701596434
C         2.90559857430377    0.54641578123532    2.74704364546470
C        -1.41488706781494   -1.49236720610336    4.61285938014852
H        -1.87106780340699    1.63853819726471    5.26532363965924
H        -2.85241508805645    1.11931405381829    3.90100400481632
H        -1.90754212414013    2.61777711789999    3.79848146959512
H         1.92890244672495   -2.04469021975119    5.01789409609121
H         2.53644955240288   -2.20414327526011    3.37435144993716
H         1.00090166690025   -2.96190015511480    3.84091006114792
H         2.26858427877729    2.89994401006353    4.34007635129682
H         2.69212102419752    5.29057071803564    4.02283415057552
H         1.26047627430257    6.93527498039226    0.21721078805334
H         1.65618529569398    9.34151988392106   -0.06984583265350
H         2.05243423637323   10.77659202689019    1.89855349359460
H         2.04274415355875    9.78779047972091    4.15820272304836
H         1.63063642895197    7.38552356862210    4.45327399756464
H        -0.40371910160128    5.45626969491022    1.08506511746690
H        -0.80187455114237    3.05721248843143    1.37027742247804
H         3.29000406797563   -0.28009266073569    2.15274458234703
H         3.02906667516591    1.47597820770062    2.19814654997376
H         3.50948491314399    0.60427156132434    3.65326918995926
H        -2.45600254832462   -1.25021176382702    4.41785048479557
H        -1.23855758299691   -2.53171445904914    4.35026971882921
H        -1.23383005779943   -1.37822134506607    5.68258212782108
C        -6.03404527389032   -1.94686921137131   -1.91275061388329
S        -6.19960310633201   -0.29049369684278   -1.18605500638672
C        -4.66221376751691   -0.16536409598175   -0.36562590864809
N        -3.82916101320673   -1.18081723540101   -0.43629394111179
C        -2.65913571282312   -1.09445291504002    0.19407794326555
C        -1.71351151794209   -2.17349804859995    0.12333558783293
N        -0.60660964403280   -1.99870939276892    0.75848813497093
C         0.42454133290278   -3.02288785908980    0.71308139775541
C        -0.06544441586986   -4.33607693763172    1.33635524410039
C         1.07210541163059   -5.35318626391735    1.35821913538925
C         1.59241801286299   -5.60367126338347   -0.05499767313145
C         2.05139445762397   -4.29644489394578   -0.69644598085213
C         0.91334681205604   -3.27911691708839   -0.71873246983556
C        -2.22189187272265    0.01964738737686    0.94133822892143
C        -3.10113899065683    1.09477513845462    0.98843826053603
C        -4.33747815748306    1.01669926984038    0.34563252222095
C        -5.23004890429736    2.10448816347158    0.40591316011651
N        -5.93323076184436    3.00954704980780    0.47630855264601
H        -5.17990071691582   -1.95415059457816   -2.58056365909564
H        -5.90840139537082   -2.67044985506539   -1.11515149104949
H        -6.95357532078616   -2.12780871669991   -2.45932494223166
H        -1.93537719989270   -3.06133086230640   -0.45366543315424
H         1.26940833378452   -2.65274327553932    1.30117596318504
H        -0.43190010501479   -4.15130549954491    2.34715868121668
H        -0.89443798913524   -4.73431174639431    0.75049508485423
H         0.71398002305349   -6.28753192304278    1.79298750590031
H         1.88699834101662   -4.98540447293707    1.98519459173009
H         2.42172637672510   -6.31203071533989   -0.02311518893550
H         0.80047869936501   -6.04921635726956   -0.66079346692479
H         2.89626963590154   -3.89368482391023   -0.13450577236493
H         2.38986219042424   -4.48297716780401   -1.71651566092946
H         1.25187179500407   -2.34394607818430   -1.16628145896148
H         0.09532368950478   -3.66851336873369   -1.32560433289637
H         1.80717436906495    0.97046810459768   -0.41086771674145
H        -2.86268663240290    2.00529070692411    1.51799881064235
Cl        0.56757924887172    0.67591397688431   -0.41663860461258
