66
 energy: -118.165102986042 gnorm: 0.000482329372 xtb: 6.4.1 (afa7bdf)
Ir       -0.69196521846449   -0.93578929907239    1.21887170549182
C        -2.07865672303957    0.94237229439071    3.74818606738585
C        -0.88666659035845    0.27376055426481    3.16132867305256
C        -0.48877150214237   -1.07711735413661    3.44066402430083
C        -1.16751814249909   -1.98488609370137    4.40690991749357
C         0.81635617457365   -1.28390170606761    2.86583715789602
C         1.72211538155260   -2.42582438117589    3.16339444365471
C         1.17095353292015   -0.11416299660492    2.13633224452637
C         2.50699266238243    0.16117181796697    1.54245071879524
C         0.10465235565202    0.86077748405907    2.31696551169866
C         0.23184644423483    2.29106292000361    1.98699072968299
C         0.18109542749005    3.22690087631202    3.01874703879164
C         0.36222022869890    4.56413658086489    2.72037926304852
F         0.31977940100111    5.46164478032416    3.72531594617210
C         0.58573928027166    5.01740736673173    1.43245678449140
C         0.62439033928077    4.06368447006567    0.43005880894806
F         0.83461137771006    4.46924066617548   -0.83765838316466
C         0.45466936561887    2.71467612044821    0.67847534924268
H        -2.25420266971443    1.91313514522426    3.29505272267948
H        -1.91111150556260    1.07846741513212    4.81723195958734
H        -2.97096235313103    0.33082179805369    3.63497283652590
H        -0.92792884137785   -3.02466574749551    4.20459437336060
H        -0.82471892631828   -1.75058798843586    5.41545954255570
H        -2.24523822977028   -1.85237719758843    4.37873043102763
H         2.26197634151123   -2.20151104383493    4.08428630414723
H         1.17186207450987   -3.35005350930934    3.31494073269825
H         2.45260984472039   -2.56822101819631    2.37265251876094
H         2.87237666255145   -0.69494808345795    0.98125165000867
H         2.47306057183927    1.02422831521894    0.88512395295226
H         3.21542954134258    0.36403121319700    2.34632528868913
H         0.03298219068321    2.92644917811172    4.04274583096627
H         0.72517357820187    6.06413270152244    1.21982081137732
H         0.47557379797856    2.01101464825419   -0.13986364938118
O         3.18818972924289   -7.56358649931759    1.06952644431416
N         3.34423505826421   -6.49288374214855    0.51390347007097
O         4.36537956349883   -6.16369620910811   -0.05933264366974
C         2.25330468283564   -5.55723647734525    0.53735963009319
C         1.06208167819367   -5.91233529633957    1.16372896907044
C         0.01183082487858   -5.01753483783082    1.17960393257699
C         0.15638351373536   -3.76371018166984    0.57796499812166
N        -0.90101850756821   -2.84537608652046    0.58772384254130
C        -2.08540605644846   -3.21612588735354    0.21219123547775
C        -3.10510284628455   -2.21601092657925    0.19125239613064
C        -4.42967048365395   -2.48467468871176   -0.20735852395922
C        -5.33137487305938   -1.46021680646286   -0.25403236776234
C        -4.89752327615538   -0.14472854323855    0.02611692014458
C        -5.76151821690816    0.95990812564675   -0.07933999615009
C        -5.28999597385674    2.22959407364370    0.14236813396102
Cl       -6.34191965979299    3.59290276124096   -0.00109354443984
C        -3.93666418575921    2.44184394333889    0.46667629891776
C        -3.08534039575764    1.38109957955569    0.60099944442345
C        -3.53530362878074    0.05960286362693    0.40430046971750
N        -2.68787356906445   -0.98708226744872    0.54329242689247
C         1.36038328706917   -3.41118211009541   -0.03682388365866
C         2.40545003838904   -4.31124612658412   -0.06611400469985
H         0.97680153580661   -6.88430691049860    1.62461571997587
H        -0.91280104648317   -5.27643835653124    1.67168621492029
H        -2.28200120390883   -4.22181951434175   -0.14156011301795
H        -4.70647321786666   -3.49528213831725   -0.45898258828259
H        -6.36129237436884   -1.63181028645465   -0.52534435610743
H        -6.79178667590598    0.79643581531968   -0.35194913862039
H        -3.58045584025226    3.45015560397083    0.60119813739012
H        -2.04114302632767    1.54890768348735    0.81020515111973
H         1.44517079170474   -2.44571854325446   -0.51233399444750
H         3.34025177807509   -4.06850809682095   -0.54739001708815
Cl       -0.15376929584006   -0.34523584409977   -1.02083797142380
