72
 energy: -125.554369704290 gnorm: 0.000583200450 xtb: 6.4.1 (afa7bdf)
Ir       -0.53894065695018   -1.14097260875896    1.52499215379467
C        -2.08459690546613    0.79343844689370    3.94452707099532
C        -0.84935834824004    0.18961178901939    3.37817353504620
C        -0.33887169510736   -1.09633351508994    3.76647622852446
C        -0.94534365225044   -1.95577749645806    4.82393076445720
C         0.97483129425115   -1.23871783374290    3.19912434978458
C         2.03078700565250   -2.21022475854135    3.59524317389665
C         1.22788668287296   -0.09323358604697    2.37949797218279
C         2.54699632061850    0.21644475259457    1.76624206237214
C         0.09510351726073    0.80088818485817    2.49431021570854
C         0.11941154542101    2.19891505425893    2.04267269729178
C        -0.08137833149791    3.22406512591511    2.96486772950477
C         0.01758314198651    4.53580190800151    2.54190006920167
F        -0.17313435089015    5.52202756339535    3.44361242891725
C         0.31023991856570    4.87981797434126    1.23481228472502
C         0.49993549594414    3.83859875408711    0.34311427111672
F         0.78250968145993    4.13607482655030   -0.94281846722871
C         0.41473838380930    2.51219298507767    0.71713532340792
H        -2.32358413025282    1.73592353605882    3.46344137067207
H        -1.92865266266740    0.96802702287461    5.00987089696741
H        -2.93357746452729    0.12007733096909    3.84809272148139
H        -0.59937049799672   -2.98201217253930    4.75038004371292
H        -0.66080804601741   -1.56811089211342    5.80274724811972
H        -2.02966469705632   -1.94472364874727    4.76155670938556
H         2.81228104525035   -1.66468760863788    4.12560552478191
H         1.64180891370985   -2.97693101968260    4.25549522938269
H         2.48780724682058   -2.67688895483600    2.72582985637025
H         2.82293400151833   -0.53905445206811    1.03351468302614
H         2.53238844938874    1.18500127037878    1.27619745998732
H         3.31009190079766    0.22233629708073    2.54453769732317
H        -0.28554131164350    3.01702903840926    4.00211402897838
H         0.38430576121901    5.90874711462454    0.92521998329582
H         0.54351592313790    1.73492682222939   -0.02024415792923
C         0.85583131355918   -2.75826975508147   -3.70667321727761
O         1.30406721341965   -3.30365417242117   -2.46931208727836
C         0.37163502008849   -3.64870827515811   -1.59545187254542
O        -0.82177928297442   -3.58948982581561   -1.81302017191149
C         0.96146529663743   -4.21547639658613   -0.34662653610704
C         2.08634119245763   -5.01458576748961   -0.43499512204426
C         2.61469712581035   -5.65263500554487    0.69397165477039
O         3.70337735678232   -6.41354238695659    0.48310660697584
C         4.29589919903999   -7.09148156123324    1.57821989947395
C         1.98248605248176   -5.47361021039704    1.92532468170797
C         0.88296201905611   -4.64089631557921    2.02499797010447
C         0.36818712498190   -3.99496280583445    0.90985681936376
N        -0.72911674390915   -3.11666734108219    1.00772927188933
C        -1.85643864910642   -3.49871685758930    0.50884087602942
C        -2.88299302619472   -2.52249245384253    0.31894740285446
C        -4.10347811528226   -2.81518676557240   -0.28532843053645
C        -4.98198550566980   -1.79784648245551   -0.59397006868533
C        -4.60401348130148   -0.48197334328797   -0.31377332412047
O        -5.30411662532318    0.61529967180010   -0.56901920003404
C        -6.59079088766380    0.50849144235548   -1.16379119009933
C        -3.35395378380957   -0.27924885173296    0.31394318194269
Br       -2.89125943712492    1.51354683296390    0.64006891156305
N        -2.52956448328359   -1.25250741655822    0.65398807036685
H         0.34083233015853   -1.81281113665615   -3.52520632462698
H         1.74766254417494   -2.59906082958458   -4.30575612569454
H         0.17071834890010   -3.45035380021458   -4.19963577329301
H         2.56063558253039   -5.17727873813827   -1.38865398774997
H         5.15130606028588   -7.61907974987757    1.16159035800249
H         3.60352092320398   -7.81320814992088    2.01863681878311
H         4.63815874198300   -6.38711914838643    2.34020825845951
H         2.33807143634317   -5.97695996703784    2.80897607043075
H         0.38848520624737   -4.51490593139861    2.97376817839000
H        -2.01830318059428   -4.52117317931150    0.18997022322292
H        -4.33996398581059   -3.83844801570092   -0.52580616306660
H        -5.92696610186527   -2.01460042024869   -1.06420015225909
H        -6.52565547576464    0.06525497702459   -2.15939252776307
H        -6.95406658912377    1.53077129388831   -1.24123468772293
H        -7.26375162905361   -0.07530743647076   -0.53296096024582
Cl        0.17565541657194   -0.79034597520472   -0.70915849053552
