61
 energy: -117.688802588170 gnorm: 0.000638085813 xtb: 6.4.1 (afa7bdf)
Ir       -0.52808312927916   -1.05049000880959    1.37595089254251
C        -1.92557551583023    0.84172025042838    3.94399187389311
C        -0.74466741764270    0.19601998323645    3.31988365525096
C        -0.31752705872253   -1.14649394754439    3.60913702354861
C        -0.96551075818552   -2.04979654391519    4.59951738758671
C         0.97596862250829   -1.33898782488760    3.01429847035797
C         1.92238088341886   -2.44111813801662    3.32932654659862
C         1.29601286416844   -0.16266578529684    2.25924276706739
C         2.62131035873375    0.12494167766755    1.65241020665119
C         0.21894641921526    0.79405469385305    2.45190291017474
C         0.30531969359709    2.21921438744967    2.09129167979721
C         0.22409049073360    3.18009437469430    3.09721068325001
C         0.36114117658630    4.51427838940621    2.76255873589527
F         0.28835520590626    5.43559267629007    3.74348011585403
C         0.57338209126958    4.94037754545437    1.46379787396787
C         0.64794726105396    3.96117907672621    0.48871636143131
F         0.85376138716101    4.33678920480520   -0.78934856410069
C         0.52208026296012    2.61519883407080    0.77404980906831
H        -2.10519467517216    1.82848097041138    3.53096560213823
H        -1.74116156425095    0.93305660460620    5.01526898830157
H        -2.82011397533932    0.23480159380974    3.82400344170077
H        -0.70273330171507   -3.08728631208821    4.41619230296869
H        -0.61850092028179   -1.78537261975178    5.59908804430308
H        -2.04620214514380   -1.94367586063667    4.58132955618886
H         2.47892382464886   -2.15838284415291    4.22426556407626
H         1.40546264931041   -3.37344334454931    3.53634375064879
H         2.63683903363674   -2.59661755058027    2.52670154509963
H         2.97834091824491   -0.71757010479125    1.06555539082430
H         2.58078398927737    1.00608397918941    1.02003579621948
H         3.34011177629972    0.30228734630376    2.45330075949770
H         0.08508230080852    2.90544084035856    4.12961005610304
H         0.67624927067863    5.98508120346792    1.22256905277845
H         0.56324794383061    1.89230965328597   -0.02545172224783
F        -4.40900017018063   -3.91540106824450   -0.76120831548127
C        -4.12301112059432   -2.66398792940908   -0.40466782079992
C        -5.02445458938962   -1.64068669474414   -0.63761958415207
C        -4.63890601937005   -0.35695720629899   -0.28636908100665
C        -3.39580116010293   -0.15642525702608    0.30499837254759
Br       -2.86689189348890    1.60180223966853    0.71029940864912
N        -2.55060092134128   -1.14569181041959    0.58334173974796
C        -2.88472082784201   -2.40213494163254    0.19496139757243
C        -1.85543048224682   -3.38141687520279    0.34703186258575
N        -0.70571038621357   -2.97219086456615    0.78232014303658
C         0.36449850739507   -3.88155507650995    0.83254243659604
C         0.23024432927427   -5.11392403140977    1.47063520496682
C         1.29082397109907   -6.00183658133909    1.48515760346590
C         2.47921919411841   -5.66143223456003    0.85090972788782
C         3.63819871737796   -6.62007708645555    0.81687963367695
F         4.79758112410904   -6.02706232423573    1.15663604113591
F         3.48887826330658   -7.66484373846100    1.64225470852109
F         3.83064968352428   -7.13301759559081   -0.41536256952639
C         2.61757642990670   -4.43363371975629    0.20986712225158
C         1.56543650597440   -3.53903600741678    0.21080813620203
H        -5.98066686231726   -1.84266965276136   -1.09483136377440
H        -5.28711753911392    0.48587120594111   -0.46604938384750
H        -2.02042103471594   -4.40342186583798    0.02380975406081
H        -0.69261728866768   -5.36970687912858    1.96726573878648
H         1.19446983012451   -6.95441819658501    1.98254064663840
H         3.54462384128831   -4.18547404872304   -0.28355458220124
H         1.64468263142457   -2.59036582960222   -0.29787657791221
Cl       -0.01903269582207   -0.49068533017612   -0.88134195707108
