54
 energy: -93.296421663614 gnorm: 0.000311036672 xtb: 6.4.1 (afa7bdf)
Ir       -0.69540644053487   -1.40607010006926    1.15908736849365
C        -2.00880801779817    1.03246663097640    3.19612515132719
C        -0.89620080711912    0.11253069276091    2.82615676953570
C        -0.69884792837627   -1.21217930909051    3.37786639833905
C        -1.56448705227620   -1.85107291264726    4.40760776346954
C         0.60542599272313   -1.66498337954205    2.98514076683441
C         1.29310248707290   -2.87476737120848    3.51227539018871
C         1.16410513998376   -0.68418027684448    2.10645105219380
C         2.56322898001114   -0.63781524983641    1.59561813341835
C         0.24346460370243    0.43885399519073    2.04736231121245
C         0.56418068813101    1.74714921303381    1.41624325221595
H        -1.72303771713793    1.57771381680130    4.09679993124175
H        -2.92194718306839    0.48587871271783    3.41554518801160
H        -2.20068616573299    1.76329058677047    2.41451541423629
H        -2.61374693859569   -1.62448260038065    4.24061228133665
H        -1.43237521341947   -2.92887313637584    4.41952971042274
H        -1.28875650069836   -1.46562271540161    5.38988113408961
H         0.59287538474397   -3.68584665976829    3.69170828421915
H         2.06784462370997   -3.22122539555580    2.83447821321388
H         1.76277461982084   -2.61940507851816    4.46266387586605
H         2.59339582110568   -0.21367709678945    0.59508533839579
H         3.01283191073728   -1.62586826951370    1.57846707331165
H         3.15893778810746    0.00103113713997    2.24828038236209
H        -0.29353809035427    2.41226116239634    1.41527092610800
H         0.89938866676163    1.60781035111218    0.39033734737621
H         1.37425367274334    2.21995221126328    1.97161010254862
F         4.97522318136716   -6.12070055672803   -0.15122510832665
C         3.98901669361441   -6.51520017244329    0.66701480912033
F         3.74508717286412   -7.80617552446162    0.38040110074401
F         4.51091225462079   -6.50604511192233    1.91352791065250
C         2.75658337143167   -5.66014253785766    0.57153094888330
C         1.56285620024240   -6.14502051177514    1.09531290819649
C         0.42238484667989   -5.36679188037417    1.03552314343228
C         0.48007643967359   -4.09561125261541    0.46465618928690
N        -0.66404873171351   -3.28486908768240    0.41289370414952
C        -1.74097323424964   -3.71701420439316   -0.16728356911210
C        -2.86046151441967   -2.82834407963246   -0.19149751666710
C        -4.05697790128850   -3.07897944341457   -0.87081653697117
C        -5.05069526786225   -2.12326217680721   -0.86791545674991
C        -4.81292427887580   -0.93272183718718   -0.18053596193315
Br       -6.13041352221697    0.43804944717374   -0.11894058885249
C        -3.60516489164834   -0.74195969263795    0.47698993678441
N        -2.65293410397960   -1.66459934455620    0.47859973094788
C         1.68043981369658   -3.61274866469878   -0.05382226683021
C         2.81756319891892   -4.39626086353581   -0.00552840187663
H         1.53007252343360   -7.12752976578773    1.53977542608054
H        -0.50519266960546   -5.73263254191600    1.44661841730105
H        -1.77873176835625   -4.68611579177038   -0.65081056192495
H        -4.18599544335618   -4.00915358169166   -1.40081940723826
H        -5.98392346979570   -2.28257218838953   -1.38468843365936
H        -3.41156210450348    0.17750782509345    1.00861687339139
H         1.69993948263171   -2.63738841442217   -0.51423767726249
H         3.74636975739176   -4.03344268454590   -0.41711833803758
Cl       -0.27496935893549   -0.65784031964445   -1.06415983349220
