74
 energy: -103.583881047172 gnorm: 0.000604585200 xtb: 6.4.1 (afa7bdf)
Ir        0.45184646620486   -0.23235980967135    1.98140530311549
C        -1.43898481772251    1.08765382712154    4.43864699031975
C        -0.08502116540406    0.71197800875981    3.94118867557777
C         0.57766419195794   -0.51563630687779    4.24385304811737
C         1.92104256194989   -0.43905113487924    3.72227788249524
C         3.05434481877071   -1.34937126847700    4.06869251752787
C         2.08914390235066    0.84613868523272    3.12401426322836
C         0.83470093666075    1.54936893778929    3.21247271291176
C         0.64647693693487    2.96870140972185    2.88441859746516
C         0.19083990902484    3.85782471778295    3.85718287319445
C         0.04946187410929    5.20014629890534    3.56634941224143
C         0.35970367791132    5.69618251456299    2.30085530346939
C         0.22117019504839    7.12890404814814    2.00076381040765
C         1.19277336387438    7.79159736171669    1.25332436772783
C         1.07227053453937    9.14231182369464    0.98284591992280
C        -0.02405343343025    9.85077536731881    1.44692850790615
C        -0.99864969106220    9.20065367485209    2.18668351046137
C        -0.87636561472205    7.85162884513022    2.46431653194185
C         0.81495029635139    4.80323346707611    1.33156812692833
C         0.95795863539210    3.46025796193507    1.61646812154813
C         3.37726941165311    1.41400145603012    2.64308806393902
C         0.03237792235797   -1.54158495176832    5.17884592362251
H        -1.37514166939910    1.32279148751765    5.50206208733086
H        -2.13936827600537    0.26290014199027    4.32782811633553
H        -1.82564502780162    1.95913501114554    3.91790682910312
H         3.50661780443099   -1.00337263075352    4.99985962540042
H         3.82002242842188   -1.33173307389864    3.29748073276424
H         2.72464951546968   -2.37317296602167    4.21875913283665
H        -0.02179713624391    3.50221702911345    4.85327207690157
H        -0.28072503967382    5.87941984511627    4.33794285527664
H         2.05896989735150    7.24993407110773    0.90178660164791
H         1.83747964085661    9.64637059115097    0.41027208376927
H        -0.11812858518701   10.90552400130659    1.23364883552697
H        -1.85659499049192    9.74918316305749    2.54796127503792
H        -1.64786069707292    7.34895722893717    3.02927958373465
H         1.04316303846074    5.16380076726784    0.33979649729415
H         1.29259480565695    2.77839951556132    0.84899362118304
H         3.68001279877633    0.95913031831974    1.70041978703574
H         3.28397308900237    2.48563532309720    2.48703463353710
H         4.15874384033384    1.22239600418846    3.37683280351005
H        -0.95158373219234   -1.88362899395164    4.86651451005310
H         0.69282202845878   -2.39760100884127    5.26891421877319
H        -0.07335920773118   -1.08982435983153    6.16588363808266
C        -1.03308835722512   -2.01949079090414    0.28893926619284
N        -0.02254124747209   -2.07513220604831    1.08360000498823
C         0.73800104626428   -3.30576956306844    1.11721254566776
C         2.21420344348332   -3.03698719005541    0.81213808788660
C         2.99924875634253   -4.34538892748302    0.83922633993110
C         2.85245942419546   -5.04284562288567    2.18840420093580
C         1.37979611863962   -5.29214989545876    2.50219969707708
C         0.59132867888084   -3.98565874584399    2.48194775291257
C        -1.76697188708441   -0.78874634352769    0.18594524823204
C        -2.86636083787083   -0.60405097743854   -0.65187778412268
C        -3.46669216368089    0.64009807278841   -0.70433684275575
C        -2.93938099912571    1.66623851349557    0.07162417984285
C        -1.84216200671507    1.41199261837694    0.87621228528294
N        -1.27344729638486    0.21208766543122    0.94854905470628
H        -1.32337056394495   -2.86449105317454   -0.32828743356123
H         0.34658535703589   -3.98513475663332    0.34816024936394
H         2.29984736645734   -2.56769717908656   -0.16827201211656
H         2.61385912448606   -2.34274472233452    1.55031131924037
H         4.05141033906734   -4.13857353459274    0.63856961844578
H         2.63591814160651   -5.00534204655185    0.04849611804895
H         3.29618215939653   -4.42226425220308    2.96880366350459
H         3.39180545057660   -5.99113614544931    2.17354312330780
H         0.96465778556942   -5.98155977060861    1.76416392741239
H         1.28168614888950   -5.75966917442658    3.48313681603863
H        -0.46383256609237   -4.18138496758449    2.67799176328484
H         0.96662982432801   -3.31454369582563    3.25046099829719
H        -3.22522329038271   -1.42733643681477   -1.24795574749404
H        -4.32007482271132    0.81329577455353   -1.34080151791269
H        -3.37028209114842    2.65385693041937    0.05482137990655
H        -1.40309837165909    2.20115126336065    1.46892463922167
Cl        1.52300789823915    0.22159575987314   -0.09376495104308
