63
 energy: -97.520990407613 gnorm: 0.000899576403 xtb: 6.4.1 (afa7bdf)
Ir       -0.78275354245265   -1.25155003955100    1.67517036265406
C        -2.06490389194549    1.35514889729326    3.53344458342686
C        -0.93628447316311    0.44822106899180    3.17546025939313
C        -0.63571233526476   -0.79806508829384    3.84913612223261
C        -1.38809316485876   -1.35117095976462    5.01077309806584
C         0.66780590473230   -1.22811446240159    3.42382326395635
C         1.45142694725616   -2.32300621354015    4.06259007350301
C         1.10531793166855   -0.34189756539725    2.39561299654886
C         2.45105437520038   -0.29725080246515    1.75329302655884
C         0.12139641318517    0.72526232510132    2.27663258899983
C         0.33049355346372    1.95995678328263    1.47143254800944
H        -1.75959233984670    1.97338796221830    4.37860870578574
H        -2.94612483249168    0.79441901288224    3.83448726360269
H        -2.32045541431352    2.01813830815187    2.71097528643190
H        -2.45634378579948   -1.18304409731785    4.90681637505469
H        -1.20853321335463   -2.41637119095424    5.12351544327011
H        -1.05482470774787   -0.85221004453136    5.92152764814839
H         0.83381247360077   -3.19769856020635    4.24909598044718
H         2.30652775728262   -2.60903329041166    3.45804426352332
H         1.82367896700705   -1.96493556193607    5.02315723666974
H         2.36152159167333   -0.02822371666478    0.70348025378643
H         2.96370760680512   -1.25162576508738    1.82716341120200
H         3.06151960403109    0.46024623115622    2.24569837042833
H        -0.54411564829865    2.60271830468467    1.49140359243912
H         0.55486831136885    1.70811001988879    0.43656383445285
H         1.18038191177248    2.51101050202467    1.87414217580781
C        -8.82640021316690   -1.98454720152941   -0.65434657490037
O        -7.50334213190672   -1.71249274174313   -0.19157075348262
C        -6.61301899139579   -2.69028113543417   -0.30475626037703
O        -6.84655416730323   -3.78213402307001   -0.76647390304629
C        -5.26798662708837   -2.28950105751002    0.21392082992588
C        -4.99763743657640   -0.99996283273210    0.68065084278132
C        -3.73033679164214   -0.70995825319700    1.14780892837428
N        -2.74979276950179   -1.61005696501362    1.18548576722231
C        -2.99224881755498   -2.85691100514364    0.70884727656283
C        -1.84138823064582   -3.71239561307001    0.70791851618187
N        -0.73608093227641   -3.19861871823354    1.13938957591584
C         0.47485097195402   -3.97261919435023    1.07434178808035
C         0.42797767985135   -5.37175120743976    1.73065946685652
C         0.80588981554761   -6.03870775524628    0.39038038550105
C        -0.23624243818937   -6.99499279019637   -0.13805027759276
O        -1.41136081179738   -6.72319670775185   -0.24535973458863
O         0.29092541773719   -8.16628669240079   -0.46106739634682
C        -0.59180428223503   -9.16883076882861   -0.96730093673972
C         0.78705101220633   -4.64805762756359   -0.28022782849840
C        -4.24385044019601   -3.22502145119511    0.21979692314821
H        -9.25127684730145   -2.82537612964695   -0.10407982036053
H        -8.81040022440571   -2.23005501329156   -1.71731034048613
H        -9.39683535368689   -1.07766752773819   -0.47624371527405
H        -5.76538294093750   -0.24447093281966    0.67749899722978
H        -3.49251266532524    0.28059799533883    1.50433017380850
H        -1.91103273635257   -4.72710476716977    0.32284653754816
H         1.29303051760937   -3.34996692002793    1.43106490523064
H        -0.56361973678025   -5.64541995529154    2.08422168502025
H         1.15490110072713   -5.51953087579566    2.52359603837103
H         1.77544378872226   -6.53209365290514    0.38437492196320
H        -1.08633287542811   -8.81279557919392   -1.87230055769043
H         0.02923982681004  -10.03322449833942   -1.18281501845762
H        -1.34897176930596   -9.41329857844515   -0.22067950636438
H        -0.00317252821321   -4.52199886198227   -1.01626657376516
H         1.73351871588318   -4.34591239540349   -0.71781221439542
H        -4.41768501701487   -4.22120012689416   -0.15618908926944
Cl       -0.47463707034205   -0.80635849588270   -0.65112982249832
