83
 energy: -131.912412291180 gnorm: 0.000445028302 xtb: 6.4.1 (afa7bdf)
Ir       -0.03766908349702   -0.88607718130078    1.36944071440972
C        -1.15019777639816    0.26753645787756    4.31170192425563
C         0.00816178512784   -0.04082866458463    3.42535616962011
C         0.75830135507755   -1.25729158442900    3.42889425154279
C         1.86548086407573   -1.10223833260621    2.52084686202547
C         3.02153717048381   -2.03672997535382    2.39077503334993
C         1.83105603638697    0.23258036945414    2.00239023645021
C         0.65698193312427    0.87761644400725    2.51451434300832
C         0.30845105744784    2.28809646851302    2.30035573080775
C         0.07504867617295    3.14003024405660    3.37889527379707
C        -0.24227453909618    4.46692567776004    3.16554978510069
C        -0.33587040891465    4.98396005276611    1.87387423276677
C        -0.67302856968614    6.39810803510805    1.65280161475777
C        -0.00213970871735    7.14297631194683    0.68497240529058
C        -0.31091459166449    8.47603156437321    0.48530314226370
C        -1.29930087276947    9.08371669171318    1.24269192230570
C        -1.97583398842324    8.35042256918337    2.20406352924418
C        -1.66378352674358    7.01921524620579    2.41049152814063
C        -0.09675538577417    4.12987874827825    0.79756010930673
C         0.22211858784383    2.80250442434865    1.00518600555917
C         2.89725616991614    0.86555869896064    1.18266658581998
C         0.53622253284397   -2.42080935527668    4.33198417823631
H        -0.78509314586258    0.49188365131558    5.31453038657395
H        -1.82346097822464   -0.58267822540707    4.38872428065786
H        -1.70382943196700    1.12729727827879    3.94455190735694
H         3.78218992896294   -1.77025647943963    3.12593372772616
H         3.46829064196930   -1.96995583701015    1.40247237044005
H         2.71980906783660   -3.06453151399312    2.57175660930656
H         0.17322802980831    2.76984124115704    4.38697323646987
H        -0.39652171876989    5.11992474156189    4.01118909075398
H         0.78157956336182    6.68170294365934    0.10186127395782
H         0.22255033857379    9.04471907131026   -0.26259092790228
H        -1.54028735587152   10.12465824322251    1.08457781707621
H        -2.74944355326651    8.81922676290650    2.79478245113215
H        -2.20529932165967    6.45116070243308    3.15284606487729
H        -0.17930254006270    4.50630375885493   -0.21100699705966
H         0.38592213571240    2.14888603543583    0.16064480493262
H         2.87259265528658    0.49547824817549    0.15786740526544
H         2.76917003962413    1.94472640713954    1.15845086640442
H         3.87277464187652    0.62378182580559    1.60107641258917
H        -0.49911040805264   -2.47790548971027    4.65512699563044
H         0.81134241874158   -3.35341808810625    3.84526008941276
H         1.16348123400031   -2.30528808551485    5.21648276176054
C         1.99848116273045   -8.63388750906590    1.77002790498358
C         2.43508410807015   -7.39949164295100    1.05854489313745
C         3.61508567108060   -7.33697436562165    0.39797891053736
C         4.06867126723775   -6.15410975143434   -0.29988821665419
O         5.11657694754526   -6.05144352022629   -0.90050711828809
O         3.24507714910148   -5.06235637306475   -0.27074053734803
C         2.05303701944755   -5.08831413192336    0.36668868503185
C         1.28900659273418   -3.92586084489953    0.31671075067756
C         0.04385396055783   -3.89461572445607    0.92563092651395
N        -0.73022689758198   -2.72970810135109    0.84457269587185
C        -1.94699418976572   -2.78827622174479    0.39885893478174
C        -2.67630569144430   -1.56243499582759    0.33390714669984
C        -3.96603334849542   -1.42501071266509   -0.19191921149509
C        -4.54328867562175   -0.17867941031268   -0.24513313493256
C        -3.82403644420371    0.93416171719322    0.22647767494468
C        -4.37903060107529    2.25827026215208    0.17849282705951
C        -3.86174761751499    3.48860792517150    0.53705961390881
C        -4.86085271407563    4.43515995768648    0.24981302657012
C        -5.91464908896669    3.72749691555306   -0.26015227812971
O        -5.63451344181964    2.42447676240146   -0.30657277891509
C        -2.54230735622286    0.71146948789005    0.74604022357804
N        -1.99080007131310   -0.48698797434902    0.80156073186706
C        -0.43029043935952   -5.01982713554345    1.61298459320519
C         0.33811574694210   -6.15783343106739    1.67901021915402
C         1.59014737383306   -6.22590127119509    1.05239978293608
H         1.83518040504206   -8.42528912289212    2.82567179230821
H         2.75232386367450   -9.40998861761982    1.67905291892282
H         1.06522242819909   -9.00131333611171    1.34701242782976
H         4.28926725709616   -8.17772663934362    0.35700429105654
H         1.65370761424482   -3.07075259518149   -0.22898211103980
H        -2.37991050073727   -3.71790706293174    0.04758539144516
H        -4.48488689584441   -2.29596402393151   -0.55836958413106
H        -5.53292321093485   -0.03898041314637   -0.64962987209282
H        -2.89219174163024    3.69228568393547    0.94345800901360
H        -4.80928505309303    5.49365576707156    0.39686549177549
H        -6.87930209717865    4.03780188376874   -0.61086578208323
H        -1.95593521682463    1.54010422322229    1.11486934041492
H        -1.38980062665415   -4.97878462818214    2.10365120542300
H        -0.03222762751264   -7.01561360476765    2.21540472269310
Cl        0.46652002004163   -0.57582152620665   -0.93681571269439
