60
 energy: -99.321022866238 gnorm: 0.000577964969 xtb: 6.4.1 (afa7bdf)
Ir       -0.57429574064377   -1.09144436856505    1.09387599409073
C        -1.87930212053325    1.05048096689308    3.49709400178552
C        -0.74733693160661    0.25635146677906    2.94350295491607
C        -0.46571469744514   -1.10954376345740    3.31332061385831
C        -1.24377606631541   -1.89998287016789    4.30915768560101
C         0.84734246310294   -1.44214777044565    2.81951190912286
C         1.63631554369980   -2.63907435255802    3.21985113380314
C         1.30656831035083   -0.34899743120864    2.03600360406870
C         2.65690754974080   -0.18005134334257    1.43137199294162
C         0.31519819260905    0.71265757576062    2.11747458057309
C         0.55953307997787    2.09938499867707    1.62447245212911
H        -1.67293251894221    1.25469027007585    4.54843165914286
H        -2.81498867705941    0.49983163951949    3.44360662487316
H        -2.00000187185293    1.99724063440096    2.98127167687726
H        -2.30683941998153   -1.68886698536819    4.23287888637491
H        -1.08315609963801   -2.96636476204585    4.17776456923888
H        -0.91646812928360   -1.63082226470419    5.31417284844092
H         0.99806775872067   -3.49896313993172    3.40354237930237
H         2.37474767578529   -2.90370187537804    2.46825014552991
H         2.16487112861739   -2.40750250292748    4.14568258829083
H         2.57959030738225    0.26297932845554    0.44092237308589
H         3.17804107797608   -1.12963771857651    1.35454412492717
H         3.24859288870923    0.49088275065875    2.05458844185043
H        -0.29686378740848    2.74478826632799    1.79551099176760
H         0.79509350684999    2.09541422759743    0.56146111517174
H         1.41720069834548    2.51682157715411    2.15195155630394
F         4.60848719230843   -6.29080028855469   -0.41028965710809
C         3.65052721837841   -6.59920193986092    0.47604609129995
F         4.25397802297642   -6.62536312879335    1.68507878813638
F         3.28695557488600   -7.86896881072604    0.22052147467243
C         2.48709575076223   -5.64876506448538    0.45239258507332
C         2.61906984954751   -4.38652498395792   -0.11621396410096
C         1.54822287083510   -3.51365756979521   -0.09806963405605
C         0.33859625975436   -3.90602935433658    0.47479416075445
N        -0.73857365605796   -3.01118154914793    0.47271585888813
C        -1.91313061261798   -3.40827713618331    0.09249360919101
C        -2.94437100036501   -2.42057201427378    0.04627896820557
C        -4.26042148466004   -2.70574669030877   -0.36903523748714
C        -5.16733837899474   -1.68793122107069   -0.45094191042265
C        -4.74558886315648   -0.36456686438385   -0.19823962398228
C        -5.60570198907786    0.74084123622597   -0.34829800538636
C        -5.14438742582238    2.01616132361875   -0.16023527688093
C        -3.79750966104629    2.23503378854815    0.17158085768173
C        -2.94226310983147    1.18179906081456    0.35386243150547
C        -3.39184978408803   -0.14257449598141    0.19631475399213
N        -2.54197836947754   -1.18326433745269    0.38338733964943
C         0.21418107717918   -5.17289037265169    1.04694884485406
C         1.28943580405312   -6.04015810674014    1.04143029450404
H         3.55222409919760   -4.09341273256552   -0.57104233977511
H         1.62630028540915   -2.53591758470696   -0.54829160279300
H        -2.09155293754323   -4.41990245431787   -0.25329860573677
H        -4.52525296403226   -3.72300758324888   -0.60589226255826
H        -6.19203016852727   -1.87205237810256   -0.73465706518268
H        -6.63072049098340    0.56026702785613   -0.63352047757821
H        -5.80588777030150    2.85921665977285   -0.28438902602966
H        -3.43781533251139    3.24696468931503    0.27388545297920
H        -1.89756452565537    1.34252938664152    0.56412859070307
H        -0.71259766774258   -5.46752265691454    1.51416925178400
H         1.20212833797145   -7.01967103120786    1.48570567049501
Cl        0.03610372808871   -0.42172037664786   -1.11579923935922
