61
 energy: -112.144784681140 gnorm: 0.000600616869 xtb: 6.4.1 (afa7bdf)
Ir       -0.35664603927293   -0.95853574236429    1.44471343220317
C        -1.94773132219168    0.85161480979626    3.94881900355127
C        -0.70685824873526    0.27760760002722    3.37083786137208
C        -0.20441992426192   -1.03257766062982    3.68492701239831
C        -0.82341666352634   -1.97280483537898    4.66000876370609
C         1.11671273128017   -1.14630546677715    3.13420575339284
C         2.11203497551256   -2.19187275783289    3.49045216001454
C         1.38567354788182    0.04282191752469    2.37852349242823
C         2.70734704956493    0.42410893610730    1.81554356542992
C         0.24377356633601    0.92977591187419    2.52875077227235
C         0.25133833211683    2.35470454350995    2.15824378534097
C         0.08023685746184    3.31475177509241    3.15329450594580
C         0.14029979727651    4.65261219447037    2.81146940884384
F        -0.02094412494049    5.57426390811509    3.78224167517565
C         0.36216950515394    5.08289144081318    1.51588005310453
C         0.52594223672720    4.10408973138483    0.55148037623726
F         0.74333095442484    4.48490388900824   -0.72361729239598
C         0.47831467582889    2.75493673019411    0.84394395569850
H        -2.17142780441653    1.82493515466942    3.52478024975679
H        -1.81015927588777    0.95610017655835    5.02588380109834
H        -2.79922798889820    0.19149796643716    3.79730752834367
H        -0.50921775882038   -2.99594311119026    4.47409858369940
H        -0.50533673779343   -1.70052985040965    5.66714463905789
H        -1.90769561543591   -1.91978830092382    4.62454327115352
H         2.57791743344442   -1.90536777320309    4.43447874918389
H         1.64548347323877   -3.16313930687095    3.62870962906411
H         2.89156452676600   -2.27354598345790    2.73989246220723
H         3.20223762378268   -0.42703409695193    1.35603029190848
H         2.60808589250949    1.21714996904373    1.08093297378201
H         3.33915112792011    0.78647561506624    2.62803956714927
H        -0.07169240477291    3.03826387263509    4.18345414711288
H         0.40488660714907    6.13047166628109    1.26908420792938
H         0.58511141454581    2.03083182083169    0.05157040742392
O         0.45701476524009   -7.55681828784182    2.75616431016278
C         1.50493506073228   -7.17236445313568    2.28846338673500
O         2.61859613073255   -7.89022955561030    2.30260130456861
C         1.67181596263086   -5.84121220669610    1.63851701662321
C         2.88986278789618   -5.43664193871463    1.09704487264515
C         2.99586472557434   -4.18926410481856    0.50190971324594
C         1.90542971369971   -3.33997443807992    0.45020290858454
C         0.67992504876124   -3.75069438806721    0.98017028768679
N        -0.42661150476406   -2.89333820134441    0.88000838319112
C        -1.55194169786348   -3.36748790093402    0.44777965999864
C        -2.62614295287811   -2.44399530952244    0.26034664242031
N        -2.35916819043019   -1.16358031485400    0.61993573618684
C        -3.25194205711559   -0.22611848628541    0.31465815335304
Br       -2.81815829469842    1.56760765954666    0.67974219174960
C        -4.48036819854438   -0.50229347630221   -0.27634435382563
C        -4.79703139184647   -1.81212671770252   -0.59989491780214
C        -3.84575583824302   -2.78173414864788   -0.33950568529119
F        -4.06756994231173   -4.05501311153848   -0.66668101108860
C         0.56389026069300   -5.00395120436308    1.57323786808574
H         2.49350551708876   -8.75697743503231    2.72906028047465
H         3.73938409213741   -6.09812984947606    1.14548174395633
H         3.93565275579076   -3.87870573021055    0.07338812944582
H         1.96919434345703   -2.37489378151077   -0.02989154223119
H        -1.66717112881446   -4.40565852936204    0.15656279085410
H        -5.17076034598810    0.30156117471554   -0.47662564843352
H        -5.73854175981129   -2.07432542018795   -1.05645737265185
H        -0.36607673571776   -5.33600009035529    2.01046292283017
Cl        0.17312945465960   -0.39554749716104   -0.80523256509123
