79
 energy: -130.795652213672 gnorm: 0.000782628870 xtb: 6.4.1 (afa7bdf)
Ir        0.07522060899077   -0.51960029737178    1.57198407097050
C        -1.40589539198419    0.85763782586262    4.26969636767046
C        -0.15021019978782    0.46097871079022    3.57331374657877
C         0.53486399008973   -0.77725217309130    3.77738735798948
C         1.75537731918888   -0.74313073252739    3.01171063142432
C         2.86611184804464   -1.74008909514933    3.07238580028564
C         1.86929134940218    0.56467032124091    2.42480408602945
C         0.66837064367416    1.29009723246992    2.72123120789709
C         0.42896752617067    2.69847110130502    2.38481629223940
C         0.07069814101664    3.61546562286547    3.37240641727511
C        -0.12240656430149    4.94469288360011    3.05367473993488
C         0.03611513851287    5.39966311526392    1.74551872388059
C        -0.14821113549942    6.82075792255544    1.41714273205176
C         0.74170636681049    7.46779768339824    0.56206920203624
C         0.58230195523164    8.80881165434545    0.26540045004495
C        -0.47341678076218    9.52175658300724    0.81025886551229
C        -1.36826866347722    8.88576645742721    1.65556672314661
C        -1.20512866800412    7.54705791551129    1.96158643449888
C         0.38961766804585    4.47909816676876    0.75997148151565
C         0.58396673473095    3.14908666598147    1.07263090919238
C         3.07866063154463    1.10588336874485    1.75361592193062
C         0.14141183191965   -1.78824044299326    4.79841492241173
H        -1.17129840234684    1.14330550462698    5.29610880173564
H        -2.10648760078234    0.02716654479934    4.31277427732788
H        -1.88151340626064    1.70291572945009    3.77949004613724
H         3.45956050548422   -1.56834656232044    3.97088921355936
H         3.51273264134666   -1.63871530541186    2.20568118240725
H         2.48367616335678   -2.75676077354804    3.09561817178987
H        -0.02172466333425    3.29490681463622    4.39782792097696
H        -0.37543131660440    5.64777495735560    3.83268677116967
H         1.57602724770900    6.92203501670588    0.14583563058693
H         1.28407363382579    9.30108701738259   -0.39220594282246
H        -0.59808733175745   10.56883784173518    0.57675136567565
H        -2.19619462363754    9.43671851527094    2.07782025326496
H        -1.91552226407826    7.05404060311998    2.60925043835867
H         0.49619650921967    4.80728727763048   -0.26296921268311
H         0.83711733449744    2.44440664205708    0.29412064355808
H         3.19896411740978    0.67706065261045    0.75882505772454
H         3.00535167279819    2.18578364216224    1.65154704745994
H         3.96328170458530    0.85402483155151    2.33603281041408
H        -0.87395565026581   -2.14667944555931    4.64413213630902
H         0.82961716399690   -2.62652216999584    4.80211829132840
H         0.17370039353900   -1.31632788540856    5.78101470026826
C         3.00357409621966   -7.51921918543434   -0.39523905194113
O         2.49766893033522   -6.93888645237656    0.79249607151096
C         1.76651406711441   -5.81614514775317    0.71520756254481
C         1.46503489195983   -5.12768490719237   -0.45408020798224
C         0.67767588402646   -3.99290577862947   -0.42538265733202
C         0.21755483869742   -3.48857195307495    0.79018324469927
N        -0.55657673184819   -2.32974676333547    0.80779801903364
C        -1.55220580757710   -2.24056906827838   -0.03053909848491
C        -2.22551009082393   -0.98908985935674   -0.14191127854428
C        -3.31682994015010   -0.74887237290321   -0.98680825035374
C        -3.86112114996261    0.51473401345069   -1.04338913091006
C        -3.29057043819597    1.51389345427937   -0.24604996579849
C        -3.81066269694421    2.92438366867956   -0.29174011478515
F        -5.12798940161658    2.97817257869555   -0.53183677881597
F        -3.59828183276041    3.58514350885937    0.85617636915665
F        -3.21789751284267    3.64741803283966   -1.25967232499499
C        -2.21323426999295    1.21350160119936    0.56986606890812
N        -1.69509882103228   -0.00701042451464    0.63344167655040
C         0.53401534304919   -4.15506584488732    1.98252389927334
C         1.27205077955241   -5.32241938802094    1.95766722374165
O         1.57995679263686   -6.08092201322548    3.03076913905628
C         1.07802277187371   -5.71635700651446    4.30130490659059
H         3.54208383331296   -8.40868883586491   -0.07499775300646
H         2.19455021877915   -7.80619525009003   -1.07192686795098
H         3.69162606174666   -6.84024021787269   -0.90560458461731
H         1.83985480472513   -5.47713156312337   -1.40161489828262
H         0.47526470572436   -3.45433291691168   -1.33713763687755
H        -1.85272031711351   -3.08598538029071   -0.63701052545734
H        -3.71086031146328   -1.55069766376378   -1.58965814242847
H        -4.70270474794679    0.73753003171945   -1.68065572394850
H        -1.75738906600085    1.98336821574850    1.17745727677311
H         0.12929982874238   -3.77203787245008    2.90286942341689
H        -0.01150145002871   -5.63416926073832    4.29144176502774
H         1.52409176428326   -4.78011000050606    4.64707963755385
H         1.37517219034214   -6.52129757699033    4.97009218084950
Cl        1.01369760509820   -0.29036734016876   -0.59924716123117
