81
 energy: -119.986740562661 gnorm: 0.000328083633 xtb: 6.4.1 (afa7bdf)
Ir       -1.00879330534867   -0.82848349346281    1.31214098674146
C        -1.97227938513632    1.60556178794231    3.64405402774237
C        -0.98047147895649    0.63521217869148    3.09344137228223
C        -0.94028838155852   -0.74580999266878    3.53041075754093
C        -1.86888755993075   -1.33897361750448    4.53583408614087
C         0.29728942531620   -1.31558363520522    3.09212083289231
C         0.86375364870145   -2.61255315656102    3.55261823748751
C         0.94079289874130   -0.35667328444039    2.25327795217536
C         2.31888166638046   -0.47798271281115    1.69353419424387
C         0.16864451526369    0.87899569921847    2.29631362797594
C         0.73584784855272    2.18722254147850    1.81578458169662
C        -0.17070957101254    3.02758202966428    0.91118716396566
C         0.58768545191026    4.26354987896840    0.43314348838162
C         1.05456526894390    5.09997866945896    1.62209416187772
C         1.93224121412104    4.26566870626597    2.55132814175450
C         1.18400972057759    3.02361341290402    3.02719851501674
H        -2.98756218781023    1.22450066243547    3.55501838580704
H        -1.91694821548395    2.57018769154842    3.15383355205681
H        -1.76177846507950    1.74330114348186    4.70545280189250
H        -1.85509066449811   -2.42421591549485    4.49093795495670
H        -1.55639874953606   -1.03709286919061    5.53617973551069
H        -2.88726801195221   -0.99242773971616    4.38165952441764
H         0.08435710892256   -3.34462073965220    3.74403349965986
H         1.56172459804105   -3.02549927609266    2.83020559518933
H         1.40096375030815   -2.43965768982104    4.48595788970031
H         2.62606712042650   -1.51773281239350    1.63918591089126
H         2.37208039208306   -0.05271306128744    0.69425205111092
H         3.02098667106842    0.05791892404454    2.33272909159033
H         1.62840262979212    1.95467406661809    1.22786750826123
H        -1.06051728799216    3.35554799249257    1.44950881057462
H        -0.47720805349877    2.42859726799086    0.05227882612535
H        -0.05562311861246    4.86313896861191   -0.21391281029759
H         1.45324525857531    3.95554048192708   -0.15756376399070
H         0.18582878578421    5.46608460279989    2.17469848336646
H         1.61188862033177    5.96941436606626    1.26811115957477
H         2.23541537803325    4.86358017262588    3.41334773560202
H         2.83828071724890    3.96600008698273    2.01960566821462
H         0.31453263838007    3.32684055265408    3.61072608196459
H         1.82981713231257    2.42461060526079    3.67184542605107
C        -7.71089723829736    5.26876835052703    0.46538955219760
C        -6.42784605126014    4.46247040488596    0.59044610352053
O        -6.76177723480064    3.08952443911486    0.40873341511197
C        -5.81419608319538    2.14698804604297    0.47915643275314
C        -4.44193814943077    2.40149674148307    0.71479777268059
C        -3.54647183903587    1.37364529955982    0.80280497127037
C        -3.94820399245880    0.03448831453779    0.64529595982418
N        -3.04633785985401   -0.96587506307615    0.74377531494542
C        -3.42310977039908   -2.21352491380433    0.42380856014465
C        -2.35845430963341   -3.16357898746679    0.38830135346097
N        -1.16849957585142   -2.73549976311368    0.67043067926726
C        -0.07771849668989   -3.61262462918811    0.59697233312984
C        -0.16286623398543   -4.89327285258227    1.15102345103844
C         0.93418969915345   -5.72754154838962    1.05153519221308
Cl        0.85201958622390   -7.31756602813148    1.74508279733983
C         2.09969084692703   -5.33461537896174    0.41107418570337
C         2.17713413485287   -4.05644581463111   -0.14419400224664
O         3.25134075192753   -3.56311460412311   -0.78666788104289
C         4.38209929853238   -4.39263154485024   -0.98657407578131
C         1.08284674381647   -3.19363969800650   -0.03457461872315
C        -4.75701299512519   -2.54381627908167    0.09848242275878
C        -5.70592761338689   -1.56526667695510    0.09277403824739
C        -5.32154883093132   -0.22615748153687    0.34356559056653
C        -6.22576163081203    0.83619191230064    0.28817414348191
H        -8.15634238500173    5.11344903918707   -0.51326138337785
H        -8.42373504938295    4.95970229894671    1.22473453134054
H        -7.49154084937243    6.32477320520154    0.59209144454765
H        -5.70904307307339    4.77451898880381   -0.17708854001368
H        -5.98445708215019    4.60739288257190    1.58322883300177
H        -4.09108891962998    3.41525713615198    0.81644376059934
H        -2.49609058696909    1.57036714169871    0.94174424516837
H        -2.53411303840492   -4.18300236140572    0.06529962342763
H        -1.05059813319046   -5.21765884562245    1.66729656803846
H         2.92483553932235   -6.02386426237960    0.35380787922154
H         4.83163025783178   -4.68834527700133   -0.03511968648289
H         4.12319443696035   -5.28151276834948   -1.56717802623766
H         5.08870030021583   -3.78567217841836   -1.54850486972974
H         1.13493188944797   -2.21427497776131   -0.48153689425813
H        -4.99754318802700   -3.56840128599542   -0.13293657991434
H        -6.73914942952746   -1.78574209135494   -0.12496401346269
H        -7.26499842603587    0.64533636662357    0.07368992930415
Cl       -0.60611944259760   -0.15823974930046   -0.93725275905369
