73
 energy: -111.380519598092 gnorm: 0.000446816839 xtb: 6.4.1 (afa7bdf)
Ir        0.86008121825395   -0.13181667927195    1.79105435013622
C        -1.87084242480077    1.56698264398600    2.93556511649737
C        -0.58112978202369    0.86859946868927    3.14940169144280
C        -0.43393411819179   -0.48475653927884    3.58434866525924
C         0.93673940870988   -0.68536812626545    3.93383392008302
C         1.49635562213126   -1.88212010568229    4.61195175074485
C         1.64490423846254    0.58064959022786    3.75312834385221
C         0.71738298930149    1.53062633407452    3.26266089621490
C         0.95306703316087    2.96248362196691    3.04964441252941
C         1.50935854444490    3.73712107419785    4.06649866747062
C         1.71035058166510    5.09028997340125    3.88241635668561
C         1.37825025985550    5.70719328591194    2.67701059696159
C         1.59553728224855    7.14779666673097    2.48103137175025
C         2.08371166835641    7.63463555470271    1.26968858647380
C         2.28228473230715    8.99052688763078    1.08494950447889
C         1.99092406539309    9.88268371747823    2.10419049593028
C         1.50404361389788    9.40970774207779    3.31206870245295
C         1.31167078355856    8.05356422318637    3.50167940891287
C         0.83262149743200    4.92471860611382    1.65940644922195
C         0.61625704555031    3.57503101949593    1.84383582766724
C         3.06325337400261    0.82181635504722    4.12460677733105
C        -1.54920232199727   -1.45480149776845    3.78502687707664
H        -2.22153479305121    1.92114397649176    3.90743804096561
H        -2.62837983921913    0.90001631234319    2.53444368883741
H        -1.75914883599366    2.43534644945588    2.29264788553635
H         1.26298545281011   -1.81000653761265    5.67591272836798
H         2.57678310626554   -1.93133344768009    4.51206641526446
H         1.05299309326590   -2.80108685046250    4.23758854200999
H         1.76181694529242    3.28113855924960    5.01091632132137
H         2.14875302871605    5.67561541766557    4.67629383726061
H         2.33030253585572    6.94503124693545    0.47553236722492
H         2.66638095903544    9.35393175331444    0.14291364983097
H         2.14243738302766   10.94187569651147    1.95724014210996
H         1.27227843296182   10.10180974706068    4.10848711330878
H         0.91489606377902    7.69585113965263    4.44036322581955
H         0.56315385589559    5.38615005549922    0.72154911480416
H         0.21868731565488    2.97907388674167    1.03525731001067
H         3.70461113154256    0.01653439265113    3.77247876852371
H         3.41486651768340    1.76028838143849    3.70528572126127
H         3.14983227690948    0.86366109608113    5.21090960954706
H        -2.28492012482119   -1.37270637035714    2.98897781391689
H        -1.17914837372181   -2.47471964851859    3.81816895931430
H        -2.04673580776630   -1.23808161637545    4.73007185045340
C        -5.55333555877350   -2.34538427360831    0.93520810597039
S        -5.77101426316837   -0.57694610073342    0.57651199010361
C        -4.12740587822191   -0.13130084006978    0.23034616187228
N        -3.19247208601291   -1.05437687031288    0.35500751226750
C        -1.91633618906490   -0.74436886846592    0.12594899702053
C        -0.97631974305338   -1.84767424151844    0.20499209605314
N         0.25472702681295   -1.72017343320558    0.56411433613352
C         1.14730917255013   -2.78214179989311    0.33431007380786
C         0.99230018309410   -3.62908810763463   -0.76657311309011
C         1.89735097250085   -4.65021354041102   -0.98698371512806
C         2.96427683048308   -4.84300492899458   -0.12304129950178
C         3.13743613673657   -3.99003298561844    0.95701158811051
C         2.24233522014964   -2.96224449755139    1.17937897098016
C        -1.51340425346085    0.53521933870166   -0.26890531548695
C        -2.48718734611820    1.50976042898629   -0.42781626503502
C        -3.81832320150855    1.19538556414840   -0.17136356539141
C        -4.83161120597974    2.16344612416314   -0.32541500826731
N        -5.64416431128134    2.96321224856711   -0.45499383741100
H        -5.15058936985187   -2.83517806896431    0.05589638499161
H        -4.88536185592833   -2.45872190818781    1.78102536703568
H        -6.54200520392950   -2.72567242222517    1.16937878791420
H        -1.37455468462267   -2.81602220947474   -0.08697332470686
H         0.19496151788340   -3.46220175095926   -1.47406371186881
H         1.77376245883206   -5.29282129799404   -1.84482038907130
H         3.66743687940352   -5.64125113005219   -0.30126126713253
H         3.97691477070244   -4.12422412304590    1.62086644841875
H         2.38456208645661   -2.28760747097654    2.01283795514407
H        -0.48039566783054    0.73654402028075   -0.51160885127492
H        -2.22988976038382    2.50514117356418   -0.75747026402917
Cl        2.27196068769747    0.50528651464927    0.14129927666410
