78
 energy: -121.377517211880 gnorm: 0.000596114889 xtb: 6.4.1 (afa7bdf)
Ir       -0.61828093512040   -0.62033016148648    1.52304756729980
C        -1.81501279368806    1.06374331722647    4.23681868358092
C        -0.65913598874174    0.43344127548555    3.53910061623023
C        -0.25575149754096   -0.93472390421168    3.69620402531405
C         1.00820922442515   -1.10409375861768    3.02494330977258
C         1.92436332016827   -2.26771387036708    3.17570536309263
C         1.33508359775906    0.11950017062056    2.37990901038351
C         0.29208967679180    1.08248928673377    2.68787843456956
C         0.40275383246738    2.53007868914795    2.44771760396933
C         0.35191037802147    3.41328050355315    3.52535503390992
C         0.50052819434637    4.77106721140186    3.32537580262012
C         0.70440061250217    5.28949621213586    2.04733514522303
C         0.87119876299093    6.73571736320801    1.83895104686408
C         1.82275479029341    7.21653439460384    0.94140101634382
C         1.98837329367996    8.57620639679608    0.75191852659107
C         1.20144980557723    9.47827799487823    1.44944772699228
C         0.24866241327329    9.01149830629505    2.34040674889232
C         0.08694194506283    7.65227169813077    2.53686849895898
C         0.75160741728495    4.40251612808235    0.97272331155016
C         0.60440026909304    3.04370826568409    1.16688694470854
C         2.63749664302723    0.42357361754158    1.72646065542002
C        -0.87431257912298   -1.91790407253550    4.63091757222367
H        -1.57526382183194    1.16506976750757    5.29600721866604
H        -2.70711933111665    0.44597618672870    4.16056319813137
H        -2.03024287228546    2.04797367615753    3.83145621874658
H         2.52328716274315   -2.12060845523713    4.07545641018395
H         2.59867358738611   -2.34574064636204    2.32825247892634
H         1.37859254306847   -3.20124055648865    3.28152840661929
H         0.22604184284894    3.03152487934417    4.52644415056352
H         0.48325764178620    5.43822933410236    4.17397720417815
H         2.45176272534316    6.52141196702371    0.40465157008971
H         2.73557701153439    8.93487111698681    0.05866133069744
H         1.33019479032950   10.54014533849466    1.29885740191579
H        -0.37051537418056    9.71114407674716    2.88323174536019
H        -0.66812465063920    7.29767173314850    3.22322846069877
H         0.88731484623658    4.78354160648076   -0.02820353409262
H         0.61661453409820    2.37518151104201    0.31853533196913
H         2.88755379726987   -0.32499735956054    0.97809447553850
H         2.61434826692170    1.39968846745348    1.25154373580057
H         3.42231059205545    0.42058425486519    2.48354643420621
H        -1.94703553076284   -1.76507085296440    4.71012806961455
H        -0.68165149646041   -2.93780888104147    4.30849534945582
H        -0.43967899739661   -1.79055908735785    5.62306129603298
C         4.29260609089003   -4.88511804811886   -0.64294456369311
O         3.27653477235238   -3.91138803282776   -0.47710544169517
C         2.12603174656724   -4.25705576268791    0.12733827546285
C         1.85744783632750   -5.51530712080727    0.66847709004492
C         0.63296080024116   -5.74782063156123    1.27600794867670
Cl        0.31514531885028   -7.31527159177849    1.95354616982056
C        -0.34194115810936   -4.77085375615842    1.35418237327635
C        -0.06584962574450   -3.51278179548775    0.81203555942633
N        -1.02563193809877   -2.49340049506925    0.86403355566753
C        -2.25103713795930   -2.74454680083650    0.53359536820952
C        -3.17296397716141   -1.65067886272182    0.56507313289910
C        -4.52568755309015   -1.78792565424072    0.19497887780769
C        -5.33270455152168   -0.68631429055275    0.20635117370050
C        -4.77910261796095    0.57242266856345    0.52303429520369
C        -5.54209851093877    1.75614162283692    0.49225135853339
C        -4.96172823389376    2.96965492364316    0.74611940469446
C        -3.58920946261804    3.04448127536445    1.03062388237845
C        -2.82538127108048    1.91049746627780    1.09778184951556
C        -3.39450805660294    0.64478994010691    0.86481760650616
N        -2.63728694056369   -0.47843513956867    0.93899283531822
C         1.15799391820858   -3.25298217001380    0.21520821717747
H         5.09558525048479   -4.37707927490315   -1.17255431648977
H         3.93842446843683   -5.72791607684426   -1.24115287067574
H         4.66057197825817   -5.24243894998465    0.32199661360344
H         2.58127338981387   -6.31104362967701    0.62553457442497
H        -1.27934156741084   -4.97079501795436    1.84552078588329
H        -2.55929702198182   -3.72279498943168    0.18295657231744
H        -4.89629680845061   -2.76076596525760   -0.08351911248166
H        -6.37978468598734   -0.75594604601268   -0.04462469125326
H        -6.59095466984793    1.68526015910133    0.24860748597828
H        -5.54980910814349    3.87321856483826    0.71318881900827
H        -3.13053103271077    4.00721753318043    1.19339088544986
H        -1.76637063313950    1.97628486037857    1.28276451144608
H         1.35451183311319   -2.28684053584568   -0.22190896551543
Cl       -0.13441449003220   -0.00544751734479   -0.72629585845927
