59
 energy: -92.401246851422 gnorm: 0.000351546816 xtb: 6.4.1 (afa7bdf)
Ir       -0.61594544149886   -0.94394855137018    1.53862754513605
C        -2.04874068060219    1.51456998378488    3.45636706216678
C        -0.85673255043916    0.71070066441854    3.05960980804528
C        -0.43706965127533   -0.51243841423316    3.70801596116985
C        -1.11105737111551   -1.12809879107416    4.88749671594586
C         0.88440499772733   -0.83087426198046    3.23671584249485
C         1.77489313349060   -1.87610612387006    3.81221795426617
C         1.22411145815138    0.10620302593488    2.22097080170225
C         2.54919666587854    0.26893879436684    1.55781154765928
C         0.14837859541122    1.07932490663911    2.12935423444658
C         0.23012562790382    2.33440908797792    1.33021257826784
H        -1.78747052731878    2.11819374272386    4.32636315449970
H        -2.88391822583679    0.87633269620947    3.73304918027714
H        -2.35652444535462    2.18927585256227    2.66212872636286
H        -2.19202338113636   -1.05847120644659    4.80466720096562
H        -0.83240124070499   -2.17175618981273    4.99866770003376
H        -0.80613083664939   -0.59753387892224    5.79038991295801
H         1.20592921239973   -2.73375519190303    4.15983173425870
H         2.51068516772327   -2.21487867844472    3.08831085343199
H         2.30500972197176   -1.45179987675033    4.66561844521622
H         2.42463212158048    0.55659611321375    0.51628042945203
H         3.13334286130547   -0.64546932832073    1.60328422666515
H         3.10739936151842    1.06053909583064    2.05890225581564
H        -0.70619919322172    2.88348778962311    1.35015125772312
H         0.48079615281114    2.11222947334537    0.29465931145790
H         1.01758699164461    2.96892873356885    1.73703588378497
C         1.05943375020491   -7.34899932412990    3.10613250189725
O         2.16532923216004   -6.71051819918990    2.49009090334031
C         1.98214224587550   -5.53038162764524    1.87154329193989
C         3.11922543790364   -4.97618212436537    1.26965100981576
C         3.02881265032392   -3.76789933626708    0.60815360830711
Cl        4.44060467657365   -3.10172819309473   -0.14916588423293
C         1.83334038696395   -3.06914084332335    0.54024040024805
C         0.70737403725838   -3.62174631492835    1.14017085588281
N        -0.50100093867841   -2.91101433249650    1.07888474076887
C        -1.58595252688652   -3.49806496471609    0.68924390221613
C        -2.77426428399752   -2.69380442738514    0.64270906530968
C        -3.99735865161920   -3.13902521275486    0.17009050107508
C        -5.08498655882221   -2.25634709152884    0.12202353644056
O        -6.23485463883650   -2.74094655538497   -0.33129605290719
C        -7.37255934584474   -1.89302605707744   -0.41202598517732
C        -4.86249656215429   -0.93910902957646    0.55388622796366
C        -3.61111488464570   -0.57749816393739    1.00601405111237
N        -2.58442180691709   -1.41944375453504    1.07473385369182
C         0.76932420761445   -4.84875633215709    1.79907846279509
H         1.45560218021512   -8.27313550881494    3.52116091085241
H         0.64726151461587   -6.73681913986558    3.91175503760155
H         0.28151241962183   -7.58366644717596    2.37563076159437
H         4.05141546880321   -5.51163627736197    1.33358113928448
H         1.75584319682750   -2.13817585699442    0.00409821331405
H        -1.59460656831440   -4.53127633619811    0.36357056040108
H        -4.12215919438270   -4.15235985592371   -0.17373914141836
H        -7.66234859346426   -1.53186024660981    0.57688986148453
H        -8.16628745187182   -2.51451723587845   -0.82012040154689
H        -7.18810834768498   -1.05045006895969   -1.08168337423379
H        -5.64548308081109   -0.20012576601766    0.53803404673579
H        -3.42741531626374    0.43579977758221    1.32904143161308
H        -0.12041282845512   -5.23778310380612    2.26573783087463
Cl       -0.39964934964239   -0.50709151653166   -0.80548519122343
