64
 energy: -90.526632827779 gnorm: 0.000462471342 xtb: 6.4.1 (afa7bdf)
Ir        0.84950796359767   -0.39068914264697    2.16432077620326
C        -1.38891568971468    1.50375205102056    3.77674367755288
C        -0.17128573730599    0.65304834077583    3.80684979335338
C        -0.13044497494548   -0.73943223877847    4.12972423348677
C        -1.30728621905797   -1.57792150609834    4.49943899199521
C         1.24937124417315   -1.12787828559021    4.19716547419341
C         1.78348761807232   -2.43936058412976    4.64385697846185
C         2.07128436691548    0.05208201259921    3.96787986396863
C         3.54591738353547    0.11027128232184    4.13501583546297
C         1.19871408204811    1.14896653334633    3.73167428770235
C         1.58923881485682    2.57358828527335    3.59497425765325
H        -1.55814823648269    1.90256516515608    4.77812103726519
H        -2.26618741350886    0.93066100241897    3.49007413398136
H        -1.27430825466111    2.34585357116265    3.09926738318368
H        -2.18769576947249   -1.29176453268959    3.93122961044689
H        -1.11474875472916   -2.63294538017551    4.33259827067288
H        -1.52573803671055   -1.43449946284108    5.55774342562700
H         1.01226885857986   -3.20308028929983    4.65115084006473
H         2.61240626871581   -2.76546167412738    4.01845566209863
H         2.16583725363684   -2.32869085801095    5.65963555933629
H         3.97532555698211    0.92440911601799    3.55838884787937
H         4.01448467055900   -0.82191298862817    3.83260666630925
H         3.77581568401037    0.27938349946254    5.18783756483768
H         1.63238337895808    3.02019154338457    4.58965675721988
H         0.86628309613247    3.13251371041759    3.00724377791592
H         2.57039971613790    2.67181723896406    3.13867338503780
C        -4.27743727835861    3.49685509539752   -0.22127646566049
O        -3.20717765723805    2.64712556931604    0.15775482834347
C        -3.23177031125524    1.35968446169870   -0.22219654126203
C        -4.23536228071428    0.74448930365867   -0.97203198146958
C        -4.10328996858813   -0.60629046928642   -1.26943680463858
N        -3.08897349811789   -1.35505752081267   -0.89208006754237
C        -2.12397894810071   -0.77271655816436   -0.17718468270673
C        -1.00475799819087   -1.60597118697550    0.21820219770101
N        -0.69526101544030   -2.72358168657958   -0.18354830916218
C         0.42185065538036   -3.47697311856142    0.21998709714496
C        -0.01071537043326   -4.83949239795952    0.76937787915342
C        -0.73769366938359   -4.70637126083665    2.11116186752841
C        -1.20588712210820   -6.05146041492525    2.59438038350072
C        -2.45965339018092   -6.52926459288141    2.23396624692591
C        -2.88348839316575   -7.77945332171052    2.64895616106469
C        -2.05627442294273   -8.56960557118321    3.43020933611974
C        -0.80402605021184   -8.10289386166861    3.79289288164511
C        -0.38245605974304   -6.85230270761774    3.37563524150503
C        -2.15220395919252    0.56712100969685    0.18456268672072
H        -5.22486179731147    3.14517630260002    0.19433157880829
H        -4.35502079783917    3.57407218909132   -1.30856218758011
H        -4.03493092358619    4.47173344772777    0.19559556634808
H        -5.09785456091754    1.28625266319684   -1.32163388836274
H        -4.86399319807138   -1.11481996270308   -1.84537855475847
H        -0.28679450133502   -1.06548669449798    1.04214503718851
H         1.01520586635922   -2.90739885705553    0.97859729518539
H         1.04084288208293   -3.63424908480707   -0.66726197907156
H         0.87178522791220   -5.46807822771994    0.89078423441330
H        -0.66953065997450   -5.31418415825420    0.04243916565788
H        -0.05064840184402   -4.27055792288006    2.83884679752449
H        -1.59438386201754   -4.04210126811949    1.98607284789703
H        -3.10922629119654   -5.91742476826521    1.62487054320054
H        -3.86106315423133   -8.14002872444397    2.36222985789379
H        -2.38679515552580   -9.54558341609301    3.75464619892960
H        -0.15503561718009   -8.71600040225994    4.40118335762034
H         0.59769161025146   -6.49818948900410    3.66166528095430
H        -1.34726127603497    1.01604946498483    0.75082020070579
Cl        2.05266647809538    0.00854072855580    0.31654260064991
