86
 energy: -134.603396920544 gnorm: 0.000565288380 xtb: 6.4.1 (afa7bdf)
Ir       -0.39425428591637   -0.14625119021787    1.66243851056617
C        -1.71473107985591    1.61339140488310    4.24947699111266
C        -0.56288170747801    0.86795668467229    3.67178220575814
C        -0.35050258368303   -0.54329210287198    3.84351987650959
C         0.95416005599917   -0.85523594962373    3.33321387679697
C         1.69630147039102   -2.12866286291506    3.53252907796157
C         1.50123992613335    0.32742691186611    2.75387623288518
C         0.56486382738310    1.41339325426711    2.97901806173491
C         0.88218453978669    2.83873511908207    2.81099540728049
C         0.73765467045378    3.70971620513669    3.89061493442045
C         1.04400866484701    5.04904006450631    3.75612872793901
C         1.50480634449519    5.56180545864215    2.54436552641748
C         1.81271125924035    6.99271056239415    2.40682844530531
C         2.92648604164907    7.41660712012833    1.68451957406406
C         3.21877558283783    8.76311266288892    1.56719740004558
C         2.40036563130232    9.70918959542804    2.16269714562290
C         1.28712345539216    9.29945583404319    2.87831907880730
C         0.99692477577355    7.95342832162806    3.00204248330123
C         1.66286534804608    4.68453611651052    1.47159665502782
C         1.35875486931823    3.34441573467538    1.59995587505965
C         2.90289958507605    0.46289526550135    2.27013865881831
C        -1.20979686856942   -1.44555635612369    4.66313969541311
H        -1.57541110268999    1.69685321567621    5.32825835495451
H        -2.64850803381486    1.08187340519665    4.08079554292443
H        -1.78671345138816    2.61145417219508    3.83032660935050
H         2.25307619069659   -2.06081230111799    4.46848810787796
H         2.40898147797061   -2.30052520723866    2.72999254282457
H         1.02583925192990   -2.98069670771992    3.60122031731053
H         0.41147019844458    3.33128769083809    4.84662948655571
H         0.94453547871854    5.70490201652501    4.60789193291465
H         3.58074650391997    6.68697729712182    1.23046956032631
H         4.08999068417702    9.07696252421653    1.01049915003452
H         2.62916911065409   10.76085201078067    2.06985668595117
H         0.64320354595802   10.03343683538139    3.34060607925530
H         0.11802157586293    7.64532500456031    3.54888290976006
H         2.00344466410638    5.06283581358015    0.51952053638873
H         1.44592733061269    2.68831775128723    0.74686573174206
H         3.10361467248006   -0.21951688125220    1.44686388044883
H         3.10162753083201    1.47679006633467    1.93666905658270
H         3.58738307972722    0.21830112285610    3.08258902225478
H        -2.26112218214838   -1.19792274524887    4.54505811920580
H        -1.05806316810322   -2.48615730779034    4.39017388698526
H        -0.95196740449331   -1.33067358917936    5.71660244633782
F         2.96427676674849   -7.12494375965262    1.10797454168961
C         3.21098314830329   -6.02559363778405    0.37958829478451
F         4.43019794767791   -5.59054086108667    0.75200832669467
F         3.34361408516577   -6.44354993053401   -0.89730846944187
C         2.15737338226478   -4.96516382313409    0.52320943743027
C         0.93572274471238   -5.25447000442333    1.11778766758343
C        -0.02446871288358   -4.26561775919399    1.21806391820402
C         0.23072851788990   -2.98404819670350    0.72579513709258
N        -0.74262800147755   -1.98270104901553    0.84094548356126
C        -1.96557079198478   -2.24009723382019    0.52490584374570
C        -2.96534085329335   -1.23279516691371    0.73306823703945
C        -4.30919560272914   -1.55505881861734    0.65954500359498
C        -5.23747252839942   -0.57859785299057    1.01951445017747
C        -4.79102376679991    0.68205201335205    1.30508395696009
C        -3.40688715223875    1.00797736710093    1.20955258691579
N        -3.01604333200434    2.28688881539787    1.27503462922985
C        -1.80993868845148    2.75631692964894    0.61920032490405
C        -2.12603297632099    3.99867577855273   -0.20925953172359
C        -2.50988722241982    5.16448861502857    0.70673715385039
C        -3.16116486123140    4.62759753032130    1.98519282418779
C        -3.92916978816366    3.33851333325399    1.70988032555169
N        -2.50031665350474    0.00785486363511    1.05039807108165
C         1.46537350130298   -2.70008959299436    0.14316777828030
C         2.42202993294696   -3.68951090271921    0.03391679532778
H         0.74030285113142   -6.24373001732296    1.50092446191862
H        -0.96616780947594   -4.48217287408984    1.69835723541753
H        -2.25212212347613   -3.19835133310295    0.10372879559433
H        -4.61635307543496   -2.54566188094594    0.37208724681706
H        -6.29054004810013   -0.80843633801934    1.04961497782080
H        -5.49838322599535    1.45292776140281    1.55286695807919
H        -1.43637713747951    1.96792891280371   -0.03148451765942
H        -1.04139677630833    3.00739512433825    1.35045047574028
H        -2.93905172011620    3.77089289742245   -0.90012322028262
H        -1.25128525332075    4.25435633570876   -0.80542985847048
H        -3.19351133651912    5.83304218358168    0.18274711095350
H        -1.62339175271848    5.74257740864488    0.97016664286826
H        -3.85174712188282    5.36359924519937    2.39677165302225
H        -2.39539156881370    4.44178226520448    2.73906208751755
H        -4.42728919656268    3.01732059206983    2.62735267259703
H        -4.68740119587986    3.53563718948411    0.94352754980476
H         1.65020449436483   -1.71061797747345   -0.24422346461412
H         3.37552557979532   -3.47845114493503   -0.42480803193912
Cl        0.37418884551826    0.43013595173712   -0.52973096279870
