66
 energy: -98.152100226222 gnorm: 0.000545105768 xtb: 6.4.1 (afa7bdf)
Ir        0.04990832075688   -0.77598232073291    1.48307511175184
C        -2.03015080438700    0.25657729808753    3.92243470493882
C        -0.62978960356512    0.02557178283637    3.46972226337715
C         0.12914931543168   -1.16266866897519    3.70043365645735
C        -0.33359706441385   -2.33429245449721    4.49642693673780
C         1.46775476919751   -0.93814282504406    3.21456979031909
C         2.65949892828994   -1.80359509060730    3.46302313282963
C         1.54016285753867    0.39957918558892    2.71654017434011
C         2.78594415539819    1.09555673893459    2.30169139921765
C         0.23054176693494    0.98394823112879    2.82337368644997
C        -0.06755076447039    2.40014640320788    2.57135483476231
C        -0.64051185392095    3.18421537803872    3.57153850762824
C        -0.87167664650754    4.52392634757656    3.32383690294543
F        -1.42272556274329    5.27556686083081    4.29913927272300
C        -0.56031567703283    5.12608989261103    2.11750322417103
C         0.00860781245082    4.32160496214070    1.14517168957646
F         0.32292284060698    4.87242869478691   -0.04502349763144
C         0.26087197733874    2.97815136044053    1.34494716498305
H        -2.46963592930738    1.11417134865816    3.42067080355123
H        -2.03453586182532    0.44325046276756    4.99695817122727
H        -2.65125662136497   -0.61741217805973    3.74018817966842
H         0.17092515681147   -3.24931078988236    4.19877393564572
H        -0.10909469949713   -2.15532935597939    5.54863268674404
H        -1.40612261092728   -2.47593147099578    4.40018517539986
H         3.25808241679954   -1.36373738907029    4.26147543524238
H         2.36852330463467   -2.80184296898356    3.77502931016647
H         3.28424110256745   -1.87069160044384    2.57560082954990
H         3.07982458852634    0.80144432405695    1.29435728059785
H         2.64266758361419    2.17315034924384    2.30883526365567
H         3.59750490902492    0.83160967990583    2.97692116108373
H        -0.87859130026813    2.77546858931839    4.53938777177479
H        -0.74746126041685    6.17268866247960    1.94485800292874
H         0.69282481952972    2.38848364246772    0.55099435561736
C         4.38900998713204   -4.34507803944583    0.11588236063595
C         3.00544422839341   -4.62082517137875    0.69654180029633
C         1.91561984152074   -3.74684171523023    0.05572651015606
C         1.57788931209158   -4.23926789402438   -1.36219718538259
C         1.29625494788433   -3.11505737186540   -2.35375025125592
C         0.66810933573576   -3.74751213427620    0.97252002909866
N        -0.20886201028315   -2.63479301954649    0.70797909494679
C        -1.20747144964631   -2.78861760012443   -0.09343595701686
C        -2.02854210634661   -1.63706803112854   -0.35059613964524
C        -3.10016451020727   -1.60274726045264   -1.24178963409922
C        -3.80058424357402   -0.42055207856861   -1.39998698230492
C        -3.40563782809522    0.69485472329889   -0.66951698070269
C        -2.32831397162286    0.59099277818569    0.19336375974354
N        -1.65913215861635   -0.54504880399394    0.36081173537651
H         4.66869163545564   -3.30565100842050    0.27154711403119
H         4.42422130133916   -4.54676254554243   -0.95146990300542
H         5.13022505802217   -4.97535222783290    0.60135458636335
H         2.75259212975781   -5.67374372196153    0.55769864653378
H         3.04797306015873   -4.43057842607159    1.76981097737333
H         2.28450204003832   -2.71826692555013   -0.00422975536124
H         2.42011688160788   -4.81750582532558   -1.74444923244946
H         0.72515404321730   -4.92096277596336   -1.32671891252473
H         0.47385139446016   -2.48516791301219   -2.02641437816738
H         1.04939435251627   -3.52850621297986   -3.32943655784480
H         2.17373315268226   -2.48257992500079   -2.46738479787600
H         0.99960697092803   -3.66872258973970    2.00772760498507
H         0.12842333780538   -4.69020937855221    0.84404789738445
H        -1.42925799523120   -3.74077519766963   -0.56198787940858
H        -3.36102416401253   -2.48905211092670   -1.79740322284570
H        -4.63602087269173   -0.36287318438543   -2.07969270045089
H        -3.92355444343741    1.63510423666592   -0.76455593261976
H        -1.99200109434670    1.44434258601214    0.76392383354981
Cl        1.16026947261694   -0.11223231690287   -0.50314986597530
