70
 energy: -114.528718430542 gnorm: 0.000270905281 xtb: 6.4.1 (afa7bdf)
Ir        0.08988391883935   -0.52851190093192    1.60884664831639
C        -1.45348534589442    0.74363927576818    4.30314459985105
C        -0.17869856478466    0.34991103335885    3.64216643503696
C         0.47675713025691   -0.91110186753898    3.78078994915093
C         1.73390451694220   -0.84181920516899    3.07518373051589
C         2.83423926304723   -1.84492804813422    3.15794369708570
C         1.87798657963504    0.48576122979529    2.55296748946409
C         0.67271920767927    1.20975516152284    2.84889972156817
C         0.47641480112441    2.64357561886981    2.59921444430824
C         0.17202105516708    3.50872219321082    3.64946790780003
C         0.05150245289475    4.86504579578260    3.42230132519920
C         0.22655931796258    5.39796117355236    2.14559322968547
C         0.13276093373298    6.84742461151598    1.91793905092488
C         1.04044824040392    7.48803837109046    1.07626505967931
C         0.97167036526488    8.85459766000764    0.87719082563461
C        -0.00958807681874    9.60222967454846    1.50788099968099
C        -0.92165948138689    8.97440103457601    2.34070809915789
C        -0.84910622816644    7.60918088910752    2.54850779741982
C         0.51357211735393    4.52601215677338    1.09573783179208
C         0.64061415369366    3.16957102301652    1.31719023344887
C         3.10709266482928    1.03683464167659    1.92760096228290
C         0.02689306178409   -2.03866414799316    4.64089925549699
H        -1.26188270522274    0.94479886412821    5.35778773021800
H        -2.18885443687986   -0.05578314989201    4.25047717508076
H        -1.86666832234740    1.64119661023706    3.85155060144754
H         3.45021214995585   -1.62068057479952    4.02966593283374
H         3.46694902695260   -1.80168937738008    2.27647914997758
H         2.44644882951414   -2.85314772546509    3.26927373729882
H         0.06939235770616    3.12328539936841    4.65142510623508
H        -0.15311207371922    5.52644843400171    4.25039822603642
H         1.81986277502489    6.91630785919936    0.59396641635444
H         1.68783968754506    9.34019365646305    0.23020811084650
H        -0.06277459876485   10.66965608733217    1.35107429860820
H        -1.69143870036897    9.55276789208972    2.83082989855060
H        -1.57263858612008    7.12784320834883    3.18997188915960
H         0.62788986295137    4.91555212412624    0.09560556560560
H         0.85699176776813    2.50564665193921    0.49281495739865
H         3.24193739259530    0.64298783691142    0.92048142122542
H         3.04916737012739    2.12014818407859    1.86322929627362
H         3.97641470681002    0.75175629265833    2.51740507550124
H        -1.05205910339323   -2.03561298674477    4.76467799988917
H         0.34022758233621   -2.99592126852540    4.23239643730453
H         0.48084398128244   -1.93001863649861    5.62669832219930
O         3.54310099551220   -7.07319802381871    1.21738944712588
N         2.37944800987618   -7.07351873571280    1.57295814475064
O         1.81095158571371   -8.04089744175471    2.04449787255734
C         1.62882908917852   -5.85820831226146    1.42386437951695
C         0.30762216361369   -5.81214486184005    1.86085056641220
C        -0.42035252866386   -4.65077098703727    1.69983146384148
C         0.17714757672033   -3.53303455668625    1.11049618677148
N        -0.54918686841902   -2.34904700705721    0.93155431860424
C        -1.65956410811810   -2.36334616259565    0.26235987697392
C        -2.33796114573641   -1.11470051267860    0.09420997198197
C        -3.50368223974223   -0.94392000564244   -0.65857731828682
C        -4.04862023472659    0.31669182831116   -0.78428464332016
C        -3.40040779672078    1.37979823383439   -0.15468541638746
Br       -4.08370141022484    3.14883129396870   -0.28182859377867
C        -2.24452356386083    1.14825002887150    0.58062734354432
N        -1.73049797171965   -0.06692689980412    0.70794818602893
C         1.50852845513862   -3.58303472256552    0.69046740556061
C         2.23243208394984   -4.74714241684446    0.83896172807883
H        -0.12891532187233   -6.68853558459034    2.31415811344750
H        -1.44265939470687   -4.59855721921732    2.04000152757196
H        -2.03734855280084   -3.27038510273294   -0.19576897575327
H        -3.96089796036512   -1.79405978422956   -1.13914029534445
H        -4.94806994813261    0.48309238012434   -1.35575231943733
H        -1.72733909686575    1.96570225233763    1.06411136927040
H         1.94414468541604   -2.71345031398645    0.22365147683245
H         3.25670475202799   -4.81585676761501    0.50726287630279
Cl        0.99499069838498   -0.22220035477896   -0.56551033449043
