65
 energy: -101.993875221937 gnorm: 0.000359058056 xtb: 6.4.1 (afa7bdf)
Ir       -0.68564469750857   -1.21558028894395    1.21368555932433
C        -1.97452927790155    1.14726194778092    3.39728742324905
C        -0.82516738506755    0.34174230506564    2.89524054942193
C        -0.47557113441741   -0.96218589550344    3.41072160823543
C        -1.17782142238164   -1.63876225933847    4.53915291127091
C         0.82571405785846   -1.30674906215304    2.90144748395971
C         1.67036164409270   -2.43157991476813    3.39070396968513
C         1.20549960377193   -0.30131233947943    1.96939561973917
C         2.52393887655835   -0.15164057505112    1.29071001544885
C         0.18152103108778    0.73231094748613    1.97836860174777
C         0.34549826650441    2.05283848852007    1.30293585184963
H        -1.79319945647927    1.39572959269736    4.44326909941720
H        -2.90643842609524    0.58835033963874    3.34500722096390
H        -2.09289323008513    2.07047459230247    2.83964779880585
H        -2.25201683229332   -1.48788921710059    4.47757765126781
H        -0.96837613742090   -2.70441472184145    4.55124434663579
H        -0.83099127016652   -1.21462311276687    5.48230646886378
H         1.06537358216728   -3.28764134691919    3.67565766313107
H         2.38628445856294   -2.74770436072449    2.63784438301345
H         2.22107395576449   -2.09673662749143    4.27034299056811
H         2.38694038233096    0.13835134663853    0.25102430146624
H         3.09436179979942   -1.07431643089791    1.32882139816092
H         3.09633114513847    0.63358172626595    1.78541545307018
H        -0.53256505765190    2.67985524146834    1.42771239821371
H         0.53607403739895    1.91896704815340    0.23930811778252
H         1.20337957580899    2.57069113796103    1.73192354766376
C         4.76629243520586   -6.28432859048814    0.26378515810512
O         3.52959742870489   -6.62235879309731    0.86177533419894
C         2.52106362882769   -5.73427252099851    0.82939098681918
C         2.57038605374659   -4.47618912582093    0.24054808481871
C         1.47589383538142   -3.63140573134661    0.27533408910208
C         0.28958190372745   -4.04806063052586    0.87171845142146
N        -0.81344544337916   -3.20195677366425    0.84553235739264
C        -2.01088622062885   -3.67555158641560    0.65705642286348
C        -3.07743725447950   -2.73322150136876    0.56972360183536
C        -4.41903538661011   -3.10204942577712    0.33037669857430
C        -5.36597547324779   -2.12895393848566    0.20280986184523
C        -4.97164973539652   -0.77032960102083    0.23115869756277
C        -5.88599925891676    0.27805949004095    0.02518573592782
C        -5.44822139161974    1.57783561950453   -0.00523167802374
Cl       -6.56944244350301    2.87092627890011   -0.27046238524219
C        -4.08439319526942    1.87960294166097    0.15012626135936
C        -3.18307117631420    0.87735817885018    0.37983182396420
C        -3.59638214300144   -0.46750555389340    0.45007328813056
N        -2.69580824187898   -1.45090787089795    0.68900305589191
C         0.22170921761648   -5.31659268568903    1.47041524272541
C         1.31967137119505   -6.15288318196261    1.47003638302684
O         1.36930312723022   -7.37632910617857    2.04027962531839
C         0.21572702180950   -7.87671634973829    2.68720831241006
H         5.21071208436580   -5.40740443181555    0.74144571526858
H         5.40906778230547   -7.14814805389025    0.42077268351180
H         4.65285969028290   -6.10524862033181   -0.80873713089637
H         3.46641198841585   -4.14703915318400   -0.25873634813733
H         1.51317197666932   -2.66815260470735   -0.20830917985180
H        -2.18740171796778   -4.72967995885331    0.48437010173176
H        -4.66912710133703   -4.14806671689673    0.26347825356515
H        -6.40588696639424   -2.37397853669611    0.05395117710426
H        -6.92786870831002    0.04490093939232   -0.12566400420862
H        -3.76110004371813    2.90529382437532    0.07689425159531
H        -2.12969282102682    1.09215971059181    0.45563533145069
H        -0.68737003229501   -5.61276098727902    1.96745417201784
H         0.49503338384998   -8.86276722278727    3.05213473364882
H        -0.07143243961337   -7.24549979693615    3.53236317080947
H        -0.62105166742225   -7.97202491927352    1.99008574644796
Cl       -0.28148315637948   -0.75461157431651   -1.09598151703401
