82
 energy: -130.412169725095 gnorm: 0.000610623864 xtb: 6.4.1 (afa7bdf)
Ir       -0.20367664612437   -1.11613621277815    1.28047744596529
C        -0.67123312430491    0.41825324962411    4.28512252716221
C         0.26619147628268   -0.14246081917171    3.27661649406531
C         0.73303022452016   -1.49605377966980    3.27491024682144
C         1.73437581793846   -1.61522194130292    2.24864641838328
C         2.68560366854158   -2.74682201757367    2.08045777200805
C         1.88473148318233   -0.32650919861718    1.62156985470886
C         0.96857493745131    0.58353708067958    2.24552561089563
C         0.99972722920252    2.03871697505984    2.05892527482168
C         1.12927964740203    2.88159426089906    3.16185572765926
C         1.18614339441857    4.24988870287973    2.99278683935123
C         1.11554626897347    4.81985777411483    1.72255913051436
C         1.13795803821618    6.28014682145277    1.55301001717389
C         1.84791568205230    6.87113314831466    0.50954665981139
C         1.86365167316470    8.24565894643299    0.35804276401085
C         1.16454457108502    9.05262010592134    1.24089880522807
C         0.44960547119693    8.47575207995777    2.27797500030288
C         0.43850822064305    7.10209849782041    2.43527820762710
C         1.00950311874668    3.97142764458817    0.62109920316963
C         0.95479678064684    2.60254242879630    0.78406181189203
C         2.94514422747551    0.02465625242575    0.64181657875186
C         0.40965634219627   -2.52583094549852    4.30261606111075
H        -0.16569130483651    0.45389960402693    5.25111142089385
H        -1.54808222444360   -0.21502607772092    4.40249358799106
H        -0.98705090907082    1.42132213091452    4.01701458875535
H         3.57854866541949   -2.53172624135031    2.66961508999975
H         2.98536626746091   -2.86179091965298    1.04260976353309
H         2.26408397588504   -3.68299278457369    2.43313370848717
H         1.21562118223166    2.46421033274692    4.15235154722912
H         1.30414483410140    4.88697073881238    3.85612239607743
H         2.40827769299460    6.25258385263727   -0.17611636444162
H         2.42437864124760    8.69060772456549   -0.45144397897726
H         1.17625316976321   10.12599377425754    1.12082343403322
H        -0.10203159905778    9.10027778835706    2.96569898842875
H        -0.13613300303010    6.65979254992030    3.23562312664566
H         0.94280857837574    4.39238556209395   -0.37075585065037
H         0.83377905977370    1.96252252615374   -0.07701933071789
H         2.66376792721541   -0.28091784568085   -0.36556293004153
H         3.10617705307453    1.10011548494657    0.63271500908598
H         3.87144929483497   -0.48416696581057    0.89967610632828
H        -0.60205967975030   -2.40225146936313    4.67888914391337
H         0.52275289365351   -3.52941256330865    3.90076883771777
H         1.09796145854868   -2.41759388360883    5.14165689764864
C         6.81756772779243   -6.62084845642954   -3.95201461138781
O         5.60243537235786   -5.93532755289088   -4.17352162823042
C         4.72277422425001   -5.81215282888744   -3.14546062000024
C         3.52338221306594   -5.15781022050841   -3.44228597285595
C         2.55862748919736   -4.98919432949308   -2.47532121334045
C         2.75122643873650   -5.47346334454275   -1.17976259451600
C         1.69995219113608   -5.33730357277360   -0.16319159100995
C         1.44559482770263   -6.37238309556387    0.73977588623545
C         0.42518591497322   -6.27001577298962    1.66846672307965
C        -0.37378393902194   -5.14148770254508    1.71124238124745
C        -0.11349131046609   -4.09362548387816    0.82931089836479
N        -0.92420286185192   -2.94463205766790    0.84277026249506
C        -2.18764364994208   -3.08947823031568    0.60988988823350
C        -3.00257384898691   -1.91536733202844    0.59138040837526
N        -2.39297267509864   -0.76853273812840    0.97842541839064
C        -3.09308465777847    0.35965439452457    0.90370155020114
Br       -2.26891959812259    1.95784339956212    1.44349336338618
C        -4.41259306590025    0.42398931056290    0.46973320006002
C        -5.05465442786607   -0.74073891902507    0.07977625949133
C        -4.33050868406109   -1.91532420964261    0.14615710313644
F        -4.88202064079409   -3.07394837932401   -0.22597534669636
C         0.92147092817171   -4.18502583264204   -0.09474567975346
C         3.95168999257356   -6.11471628970857   -0.88925903930930
C         4.93079443212960   -6.28142975445846   -1.85132772833119
H         6.64036939282740   -7.65366042287626   -3.63808375598127
H         7.33285510705836   -6.61842629393973   -4.91074866832781
H         7.43415332166206   -6.10894249950159   -3.20728052043977
H         3.37270446399496   -4.79882020242481   -4.44829717326752
H         1.63130583548758   -4.50241835837998   -2.73636414436751
H         2.03614614562993   -7.27351296125827    0.69341084543224
H         0.23823279122391   -7.08148819119678    2.35457514135599
H        -1.17942658645964   -5.05623927252196    2.42368834574423
H        -2.62099781780038   -4.05654487385472    0.37936358574340
H        -4.92269239348673    1.37381088939811    0.44875727239492
H        -6.07661052454674   -0.74181596077994   -0.26565825361836
H         1.09186522709185   -3.36072167477169   -0.76999083658095
H         4.14002822202464   -6.47411856819355    0.11107975095188
H         5.84878510444891   -6.77988830389077   -1.58407663770172
Cl       -0.14321715791502   -0.65897867977231   -1.04325591190784
