73
 energy: -113.140339252905 gnorm: 0.000399120298 xtb: 6.4.1 (afa7bdf)
Ir       -0.21382986097860   -0.74686297337176    1.48641337118634
C        -2.55260420097116    0.74653111316909    3.54184057265511
C        -1.16367342857640    0.25075313481500    3.34030026430789
C        -0.72518300314702   -1.08378879301819    3.63801556911772
C        -1.57225595340331   -2.13928196494499    4.26491317123967
C         0.71237185840395   -1.11172549890721    3.53612250814383
C         1.59152276778415   -2.17594011246752    4.09705514932670
C         1.14345521348866    0.14797187330951    3.03807852093936
C         2.55009790120739    0.63045059159756    2.94878450190719
C        -0.03084146834832    1.00129821885183    2.91573475195561
C         0.04240269456412    2.46223989907374    2.74814577209469
C        -0.47517788675324    3.28317952509166    3.74912617058161
C        -0.34983396472938    4.65370584823729    3.62554204398355
F        -0.84765148131085    5.43909437663523    4.60348918397056
C         0.26547035008503    5.25264215183250    2.54096712319821
C         0.76366023927355    4.41065253131237    1.56194547667748
F         1.36557025781185    4.95832284794003    0.48666990422893
C         0.66693979894897    3.03503552891252    1.64218602615186
H        -2.68575433807117    1.73952780119695    3.12351452913082
H        -2.75937012531689    0.78572987701599    4.61205314762095
H        -3.28112365060951    0.07419411041986    3.09372053242692
H        -1.20961426849955   -3.13450164563245    4.02343518595746
H        -1.54510501014253   -2.02328756088553    5.34901007058926
H        -2.60543886971220   -2.05279915710599    3.94142027059761
H         1.84265319610197   -1.90020821232280    5.12250762324767
H         1.08749987619440   -3.13775978381341    4.12854434934700
H         2.52274611603918   -2.26322373290346    3.54407158062345
H         3.25391059776892   -0.19228978994014    3.02324573186667
H         2.72973951944655    1.16133878874191    2.01758746265766
H         2.73757265785368    1.32558606324359    3.76762549724028
H        -0.94373132830464    2.87009067920659    4.62705005254819
H         0.35519398594711    6.32325244774849    2.46328068282439
H         1.04994306402903    2.42455892405459    0.83906116077625
C        -0.98352153198596   -2.95993084885124   -0.11512251468958
N        -0.03130118318181   -2.59725146690189    0.67544763455237
C         1.06392757139213   -3.52121210478558    0.86991668678688
C         2.23209311678202   -3.24244535305870   -0.09785543050386
C         3.26681234797987   -2.27265934353088    0.47972942014965
C         4.37722622303352   -2.05536330520079   -0.51082819834338
C         4.27045052257979   -1.06345252494479   -1.47752856961811
C         5.27266986268190   -0.88196279140423   -2.41381459860367
C         6.39509442160135   -1.69359909245500   -2.39585478544413
C         6.51011044357902   -2.68529876678455   -1.43610702601152
C         5.50587483856653   -2.86478340428237   -0.50055540858908
C        -2.02753808818807   -2.02000592932717   -0.39527390722745
C        -3.11166172487322   -2.31606694835682   -1.24286658968761
C        -4.04776778797503   -1.35037950392439   -1.48269613272588
C        -3.86426437910679   -0.06109920807876   -0.94036360263487
C        -4.75380178506399    0.99762390403404   -1.21086237348355
C        -4.51235489336220    2.25481834330818   -0.72740942981068
C        -3.35998131847981    2.50245929136075    0.03489374201996
C        -2.49079853706944    1.49024700350784    0.34130826342754
C        -2.72463008380810    0.17956615281155   -0.11435785557616
N        -1.87196894839967   -0.82867895122219    0.19787271065975
H        -0.99033885384007   -3.93615681314254   -0.58860802452981
H         0.69896920267347   -4.53752216957874    0.69803111343963
H         1.42312126240768   -3.44404650331425    1.89415692892939
H         1.84192971581703   -2.83395148578966   -1.03080157273030
H         2.72433615540964   -4.18878631086688   -0.32516376209629
H         3.67993853837539   -2.69089617732761    1.39925228603674
H         2.78192190927066   -1.32112629349727    0.69640730548238
H         3.39751408050651   -0.42785526328018   -1.49151139316685
H         5.18049346231690   -0.10562961338801   -3.16007897968745
H         7.17806806225542   -1.55261972823522   -3.12701911635618
H         7.38504648486372   -3.31935388626221   -1.41751288018379
H         5.60524254502426   -3.63953108140550    0.24667637734591
H        -3.18543466283024   -3.29953495399278   -1.67689577327844
H        -4.91080867075232   -1.54689212735788   -2.09966593381487
H        -5.61946806486321    0.79727334059421   -1.82315714552353
H        -5.19160552945663    3.06424042120995   -0.94384521295167
H        -3.15714265218689    3.50518037118699    0.37743687605213
H        -1.58813623151448    1.69520901199075    0.89188864891502
Cl        0.85738990370685    0.18744600349051   -0.41835473565611
