65
 energy: -108.037985022881 gnorm: 0.000359090301 xtb: 6.4.1 (afa7bdf)
Ir       -0.54711538587708   -1.02586869302856    1.59915896367867
C        -2.07680080697425    0.77802287444378    4.05660762932767
C        -0.83709150288503    0.14005671354488    3.53442704676707
C        -0.42229254378715   -1.20851961523871    3.81986543054187
C        -1.12040836373903   -2.14053199359848    4.75015712754487
C         0.91006717237441   -1.37769672178388    3.30787986595592
C         1.81961729643365   -2.51205981041218    3.62564742070910
C         1.26500014204881   -0.19579762699288    2.59591430049953
C         2.62283209426662    0.11984542826583    2.07137090403083
C         0.17464915603972    0.76098002489012    2.75053452992509
C         0.26771930812121    2.19496246443467    2.43012879981089
C         0.13166733136509    3.12854375748483    3.45722972725184
C         0.27050675337839    4.47211877683831    3.16611655349465
F         0.14176308595496    5.36714897467149    4.16767640779677
C         0.53600332443313    4.93596070698805    1.89004506451754
C         0.66245033605583    3.98435900118998    0.89294447865253
F         0.91639213363247    4.40008299619608   -0.36506240329989
C         0.53526562001938    2.62974664924701    1.13431512231910
H        -2.25291786201201    1.73772920544817    3.57825394640035
H        -1.96440059706214    0.94310073416290    5.12850429153329
H        -2.94146807986873    0.13240725521452    3.91762460609250
H        -0.85287959827872   -3.17255154828228    4.54271493859990
H        -0.82168619850188   -1.91357805442123    5.77421744885987
H        -2.19897456185540   -2.03138751181645    4.68141240010059
H         2.26676829551116   -2.33043649066622    4.60356575119019
H         1.28315508074194   -3.45604149288311    3.66972543005965
H         2.61819214485225   -2.59347928597209    2.89506328327299
H         3.03760210876038   -0.72102827727988    1.52145125617124
H         2.59853825515202    0.98799896689338    1.41980726350354
H         3.28502368727763    0.33315211246400    2.91120739083543
H        -0.05242460023361    2.82273420876519    4.47402648091656
H         0.64095668848913    5.98771071752623    1.68265161162076
H         0.61365672329768    1.92698278515015    0.31924542962533
C        -5.19323223643848    2.13465353661559    0.80330305376647
O        -5.49487874510332    0.86905130791352    0.23352525765805
C        -4.60622971904177   -0.11367568353308    0.28042399237388
C        -3.34816562681253   -0.05183105241190    0.88601381257228
N        -2.50612939563785   -1.07953512111425    0.90179913075171
C        -2.85079035489104   -2.23947609470836    0.29860999031720
C        -1.82199352600135   -3.23285314355805    0.31642038325874
N        -0.68833678679134   -2.89167298707737    0.84189341305595
C         0.37306957977709   -3.80221226238968    0.88699917361798
C         1.63975675776362   -3.40173270667218    0.46112805538077
C         2.68660615163232   -4.30069119170735    0.47929832496579
C         2.51106441098038   -5.60177670052618    0.94612011530241
C         3.65673526523570   -6.55770391779908    1.00040461408072
C         1.24475526308472   -5.98438618079325    1.38394900790226
C         0.18082053566152   -5.10655373820114    1.34628115244937
C        -4.09435381036365   -2.39665033034881   -0.32165615264793
C        -4.97053728748517   -1.33748824228776   -0.32700313961720
Br       -6.67905671363309   -1.46176575045156   -1.14642950937758
H        -5.05424347334722    2.05210149194492    1.88293333913560
H        -4.30945022317799    2.57250613820230    0.33630050896767
H        -6.06148182645646    2.75575929709108    0.59457018001734
H        -3.00860860029168    0.85557163362529    1.36080904271035
H        -1.97201946216902   -4.20612342600837   -0.13508167354176
H         1.76985274799056   -2.40100496069863    0.07746713187758
H         3.65748570891913   -3.99217610144281    0.12244583887780
H         4.13791904632276   -6.50119420968193    1.97715098560588
H         3.31786572012294   -7.58034638642401    0.85547152700318
H         4.40161515008169   -6.31796622220725    0.24612170953943
H         1.09203609713512   -6.98636960711206    1.75522263061105
H        -0.79302136951885   -5.41196708124451    1.69718434460525
H        -4.35135315373018   -3.32994535722003   -0.79547391168262
Cl       -0.05121476101879   -0.32769818169923   -0.62838482788125
