78
 energy: -124.455879981291 gnorm: 0.000562872065 xtb: 6.4.1 (afa7bdf)
Ir       -0.19983261919490   -0.79484045539362    1.51934556234677
C        -1.39741056819199    0.83815998313533    4.23434635659780
C        -0.22971251416560    0.27627433697916    3.49837786428904
C         0.32066836488953   -1.03390569492556    3.67637423095944
C         1.55545327379044   -1.10361381438292    2.93107520780818
C         2.58897470945049   -2.16723668425267    3.07817860088414
C         1.72530236260497    0.12742236129346    2.24283482408934
C         0.59782377624374    0.98169743936556    2.56443758028347
C         0.53399888403201    2.42518523224696    2.27793115532023
C         0.63412231942095    3.32892827973962    3.33422543212147
C         0.63999434377414    4.68802085890199    3.09304402352143
C         0.54230346297808    5.18539474462127    1.79410205939578
C         0.55762303313540    6.63465495266474    1.54154586704408
C         1.23645809304605    7.15837235971415    0.44258976832044
C         1.25609984676430    8.52134379447828    0.20966198407041
C         0.59297620885876    9.38528193603963    1.06583760935925
C        -0.08790411062314    8.87647953431058    2.15979788608454
C        -0.10247967621583    7.51445863919663    2.39789506924294
C         0.42866852007783    4.27533116114185    0.74378128872580
C         0.42469892621635    2.91453741470523    0.97978357383045
C         2.93149554100028    0.54629432978014    1.48071597682702
C        -0.14846331076175   -2.04543246880030    4.66587625346509
H        -1.11917219277329    0.98936840764626    5.27774737148169
H        -2.24787617225906    0.16032352345546    4.21501640880839
H        -1.69082747384986    1.79648108775505    3.81498470930615
H         3.21110122293016   -1.92836449880283    3.94199082436955
H         3.23440398900921   -2.21758962154628    2.20536008937807
H         2.13972449278632   -3.14266006285549    3.24437905239716
H         0.73440164311524    2.96207105369378    4.34444499165744
H         0.74791528054377    5.37337037960291    3.92028766499307
H         1.77095495014316    6.49625490281008   -0.22283875799336
H         1.79269864542969    8.91260965206606   -0.64272797112849
H         0.60803002947189   10.44950671400920    0.88173629503096
H        -0.60943968200790    9.54494396051597    2.82964113215254
H        -0.64700756341711    7.12867928174866    3.24712164131366
H         0.32569019590729    4.63832837153820   -0.26789545089107
H         0.32438954591772    2.22232648670851    0.15689399059672
H         3.35972157048254   -0.28637021726758    0.92735665731770
H         2.69232452567141    1.34730993234462    0.78667220287869
H         3.68555086330140    0.91088335382002    2.17955112136546
H        -1.21840044613563   -1.96234300541651    4.83455458845785
H         0.08434455497007   -3.05428504513650    4.33474560045584
H         0.35988262865349   -1.87780267373168    5.61625086659299
O         4.29357622642370   -3.20658364899271   -0.02079309469498
C         3.82509145603820   -4.32209908975910    0.03502826936218
O         4.50884389301937   -5.41542217018485   -0.27382252889391
C         2.43226576041989   -4.59862385958976    0.47583273155660
C         2.04008452770778   -5.86019509020256    0.91766635860815
C         0.74248405371097   -6.05676981524492    1.36097145925121
C        -0.16938547491763   -5.01587541882084    1.35410744358088
C         0.22089602873638   -3.75269546272854    0.90474711624665
N        -0.67739841656700   -2.67856372426634    0.88405372938444
C        -1.86453123852291   -2.83269522206040    0.38706621260406
C        -2.71898024039374   -1.68990477646871    0.38433175050882
C        -4.00251451590176   -1.66289105412405   -0.17218828560057
C        -4.72338371343842   -0.49404714672963   -0.15098449266679
C        -4.15216900831823    0.65418849359090    0.42547629375098
C        -4.86638204608109    1.89984283519090    0.48220597271815
C        -6.10992269892249    2.25478278796595   -0.00412470250986
C        -6.29921174124272    3.60503398508079    0.34006083947897
C        -5.16951662192664    3.98251965098286    1.01095415599816
O        -4.30504597228214    2.96906100061343    1.09991570917070
C        -2.85828067484959    0.54785840330229    0.95528215120258
N        -2.16874327643354   -0.58104309251824    0.94538652466429
C         1.52612575226351   -3.54576230505069    0.47498457836654
H         5.41973557297043   -5.21410919651739   -0.55470457374487
H         2.75246304528546   -6.66913728591146    0.92105201363903
H         0.43871514425240   -7.02910465611793    1.71565725324744
H        -1.17372742460100   -5.16822161418445    1.71870922410816
H        -2.18473837045259   -3.77153693038859   -0.05035752313661
H        -4.40475219503929   -2.55911548447076   -0.61591039432115
H        -5.71352832801811   -0.45306726616144   -0.57288282286634
H        -6.79837977421907    1.63607817630526   -0.54099946432216
H        -7.15251425209856    4.21314827058267    0.12330313927273
H        -4.88806813812956    4.91643809766819    1.45498651731477
H        -2.38595464809757    1.41729708797713    1.38921208129844
H         1.82670493685533   -2.57666866982316    0.10647346101390
Cl        0.25391589764872   -0.33409903232663   -0.78004530658423
