66
 energy: -117.966333364490 gnorm: 0.000273724040 xtb: 6.4.1 (afa7bdf)
Ir       -0.65841094328284   -1.07377134771369    1.67222022213672
C        -2.00615936528954    0.72869085849617    4.23573236646587
C        -0.79924479424337    0.16324238244214    3.57530227677736
C        -0.22091456458351   -1.11720920566079    3.86495341765975
C        -0.69861586185951   -2.05292167428912    4.91953774859925
C         1.04059288334687   -1.20548572198239    3.16734780801585
C         2.07916495701483   -2.24382994165242    3.40908774482992
C         1.19133072974015   -0.03619891053847    2.37318332289428
C         2.41265635524079    0.37777861676067    1.63259530652994
C         0.03031446981493    0.81511479932586    2.61078536919395
C        -0.05708072922084    2.23230947752236    2.21516613633054
C        -0.11220684621972    3.20469677172485    3.21255846795186
C        -0.14016436361913    4.53789477217413    2.84859985987080
F        -0.18688944307172    5.47100516222214    3.82024682921154
C        -0.12303653993363    4.95133060483454    1.52830992822701
C        -0.07421106112644    3.96053688772583    0.56314575564739
F        -0.06091507634692    4.32419755684399   -0.73443984586644
C        -0.03983312913008    2.61500355885473    0.87704305673270
H        -2.33579100238478    1.63767955361086    3.74100179439381
H        -1.75831719596322    0.97030120895092    5.26991851282753
H        -2.82212033256172    0.00978952470309    4.25835913649487
H        -0.39285992280608   -3.07390287583212    4.71004681678335
H        -0.26277880634251   -1.76132822193644    5.87597760952356
H        -1.77965871702917   -2.01532532043297    5.01743282121707
H         2.69705614654891   -1.92257359956679    4.24823049171570
H         1.63458818413684   -3.20132310259895    3.66417500109834
H         2.72541939403548   -2.37136444912587    2.54588268439517
H         3.02129449163132   -0.48122956805414    1.36650303309479
H         2.15790590390117    0.92635663744282    0.73029775268039
H         3.00495880363601    1.03529410976962    2.27016945610786
H        -0.10619323172012    2.94035756990348    4.25718992912939
H        -0.14453478114817    5.99549068922871    1.26418547468819
H        -0.02311289539511    1.88036398908543    0.08753014941857
C        -8.75028363773615   -0.85311568641842   -0.58746245631730
O        -7.39871000773679   -0.74702314991352   -0.13829565220373
C        -6.62479734690195   -1.80937455245362   -0.29573368166392
O        -6.97255329551179   -2.85643641841681   -0.78635654153499
C        -5.23415326449900   -1.57146150753196    0.21404232470925
C        -4.81905998613486   -0.33852259673563    0.72168305988436
C        -3.52019529974214   -0.20489774674586    1.17850755539241
N        -2.64521400227508   -1.20786352918872    1.16081172311813
C        -3.02905858784394   -2.40450269806234    0.64517750942689
C        -1.97982941255480   -3.37921092665254    0.60413051155874
N        -0.81881371134270   -3.00068121224710    1.03682333920664
C         0.27051984633522   -3.88135568393515    0.99216166930691
C         1.45565767602310   -3.46438878756838    0.38113597263928
C         2.53011558430056   -4.32637306986807    0.30884953615723
C         2.42646959266701   -5.59769930009387    0.86749435496540
N         3.54799267742641   -6.49486196165965    0.79240772021018
O         4.56452555614307   -6.09159249550701    0.26042519019190
O         3.41868830879943   -7.60858281738007    1.26327908253304
C         1.25496306228000   -6.01605247605532    1.49202207518293
C         0.17423494903630   -5.15933790542646    1.54931473575312
C        -4.32073795855460   -2.61509450598796    0.16822635622423
H        -9.17498529433411    0.14204349136747   -0.49354601228318
H        -8.77795187489175   -1.19267260826024   -1.62393629340102
H        -9.29566388434914   -1.56572339675369    0.03311874626797
H        -5.49916148092645    0.49647259137465    0.75794851264266
H        -3.16997716624098    0.73923890062025    1.56856482238720
H        -2.14290489131946   -4.36209470370896    0.17710060338993
H         1.50290283563081   -2.48110760011280   -0.06185611568669
H         3.45001640936648   -4.03537910677366   -0.17427380873284
H         1.20682285786471   -7.00692333506614    1.91680693312819
H        -0.73688742135879   -5.46689052839299    2.03832991188599
H        -4.61629230493222   -3.56980106563349   -0.23893919522552
Cl       -0.34411024252801   -0.54347640299118   -0.63274092392681
