68
 energy: -116.403468069042 gnorm: 0.000790682764 xtb: 6.4.1 (afa7bdf)
Ir       -0.78797246251860   -1.04641881800408    1.71559360171820
C        -2.74636884801609    1.42906579902221    3.26003149570387
C        -1.56453921593562    0.52775969766754    3.19124822636893
C        -1.57566291958476   -0.79425497609349    3.79185904939120
C        -2.75348787779415   -1.42919862774545    4.44826963605045
C        -0.23098466157577   -1.24007110242510    3.92512237235836
C         0.17741922417120   -2.39661321140587    4.77187278399582
C         0.60865223342829   -0.28609502078011    3.24778088315318
C         2.10127309872470   -0.23897131929188    3.28257005107162
C        -0.22322715815844    0.84164747418801    2.84475092327554
C         0.36341593163712    2.15513394768541    2.41122350228618
C        -0.24804366998681    2.77871348016066    1.15343779031268
C         0.50791535471996    4.05479861181954    0.79512113463556
C         0.45077289510222    5.05272965674892    1.94904060690259
C         1.02888968292785    4.43455058369453    3.21903744572594
C         0.28363965181086    3.15311595099268    3.58059875996244
H        -3.66315252954142    0.91094577355330    2.99062858838207
H        -2.63758184430969    2.30254155162655    2.62895999538669
H        -2.84954734873409    1.75910266972600    4.29528266945532
H        -2.65219840666994   -2.51076843828610    4.47094931561404
H        -2.82178844147424   -1.07446581684117    5.47748242666736
H        -3.67862634342220   -1.16765728853672    3.94279070183247
H        -0.16357030337176   -2.20535644211702    5.78996169847432
H        -0.28412370938431   -3.32585890405776    4.44386629211154
H         1.25533375716575   -2.52687470561077    4.79988791223429
H         2.52148360574860   -1.10777148985313    3.77945561553262
H         2.51686326224777   -0.17755840731482    2.27810511098625
H         2.42021261005386    0.64659209999846    3.83176962223005
H         1.42046082823632    1.98257917492404    2.18850718528337
H        -1.29646956862101    3.02928878472559    1.30851393583788
H        -0.18440254752051    2.06539019251580    0.33192969505303
H         0.07051765978931    4.49846330807630   -0.10099574118252
H         1.55009384444064    3.81552312902191    0.57133697099207
H        -0.58705399065462    5.34403915393070    2.12582545502818
H         1.00888454007417    5.95422913461388    1.68920510676696
H         0.95545432121703    5.14423547229775    4.04554646513869
H         2.08742147255077    4.21332503891673    3.06378540484499
H        -0.75909305185067    3.39041788974564    3.79014212575787
H         0.71878597007872    2.71101762259685    4.47900651151564
O        -0.01077375304459   -4.41688729399109   -1.21678531027350
C         1.00210081234835   -4.25081261046184   -0.36293295253821
C         2.29205560353665   -4.70037192898477   -0.64701185338041
C         3.32429452195486   -4.53584633476356    0.25106058264136
C         3.08076620115220   -3.89013946442689    1.46097072011198
C         4.20947074195267   -3.69668084231404    2.43135317219410
F         3.78666345014979   -3.36150697745019    3.66279055296943
F         4.96493460323290   -4.79801192604846    2.57592109346936
F         5.05177168541971   -2.71358884613789    2.05228920631640
C         1.82059467715354   -3.39986582544383    1.75059910175396
C         0.76662879066689   -3.57761405055784    0.86229703188873
N        -0.48019580343822   -3.00433351816398    1.11075146777754
C        -1.55093187629066   -3.64253236399988    0.75339679635390
C        -2.75237604497678   -2.89201479930065    0.55856284305167
N        -2.60156076630867   -1.54592894773756    0.62509459404946
C        -3.58328993444862   -0.78001607243961    0.16000276416851
Br       -3.25432045525389    1.06066722917181   -0.02289739306554
C        -4.81323122630013   -1.28238215380108   -0.25423367371862
C        -5.02543492758189   -2.65151809986619   -0.23233088738281
C        -3.96560602249575   -3.45657970078082    0.14841526381026
F        -4.07861949128516   -4.78484253226725    0.11670537653762
H         0.28645920801451   -4.72922392522261   -2.08675123070468
H         2.48254407064033   -5.19697224688817   -1.58609669889559
H         4.31170788488689   -4.90463376296040    0.02242683641993
H         1.63485119991384   -2.88950985498365    2.67750006227534
H        -1.54429574797175   -4.69681310245951    0.50345253632781
H        -5.57973426395534   -0.60456958508901   -0.59461632874459
H        -5.96511245543225   -3.08644944376059   -0.53444614614230
Cl        0.29266527272605   -0.52283064878454   -0.32561885410145
