74
 energy: -109.103258591447 gnorm: 0.000307507963 xtb: 6.4.1 (afa7bdf)
Ir       -0.45507637341364   -1.25497303272711    1.43858882908634
C        -2.07170228248903    0.65276838975736    3.80648806985450
C        -0.82688826928175    0.02153270730313    3.28300410373428
C        -0.40708631455857   -1.30106456763969    3.68103500099520
C        -1.13880296185320   -2.15875028728505    4.65686740193703
C         0.94649651846559   -1.49190561321519    3.23444957974095
C         1.88640284601546   -2.56056810271638    3.67502856367559
C         1.30795481577568   -0.35625915537995    2.45843085699007
C         2.66702479023948   -0.08847426798024    1.90928791251773
C         0.20481590414720    0.59586160277747    2.48670093427134
C         0.35457621947638    2.01339780233005    2.00442634619989
C        -0.76507033541516    2.51429832383011    1.08606017432503
C        -0.43434126586218    3.92052266912569    0.59248716288016
C        -0.26075626579964    4.87447487448591    1.77203880967247
C         0.83285476545441    4.37177090352426    2.71087313296979
C         0.51505133375270    2.96258236733656    3.20320105712307
H        -2.92015143798130   -0.02430987548741    3.73178190684888
H        -2.30812644184852    1.58124370211722    3.29920111231986
H        -1.92315826344222    0.87312953184136    4.86471729586256
H        -0.82522625749395   -3.19566735590934    4.58477551532490
H        -0.92850085085070   -1.80880278553653    5.66835973649392
H        -2.21255267719960   -2.10707379152470    4.49933131263101
H         1.37436105804720   -3.32761317901563    4.24539753206887
H         2.39048728001768   -3.02847172629217    2.83212083849518
H         2.64784351481260   -2.11083790988560    4.31262429310603
H         3.26926786870745   -0.99199594443165    1.91319006651087
H         2.60917770936861    0.28336963784918    0.88826359348374
H         3.16314154556744    0.66704720374409    2.51909472102337
H         1.27874510541968    2.05885096724508    1.42020120084219
H        -1.71621305400819    2.55397134134563    1.61702210989968
H        -0.86577062623141    1.83600217827112    0.23679719702511
H        -1.23260008354232    4.27949392535212   -0.06011692892438
H         0.48655885528298    3.89590735349692    0.00543405409209
H        -1.20340665464188    4.95300686623984    2.31912159710154
H        -0.00663812700680    5.87174578339310    1.40747144255078
H         0.92940910570540    5.04526106869872    3.56493262875295
H         1.78842110926638    4.36804611950691    2.18127221717647
H        -0.40534756841196    2.98334341045419    3.78722044526286
H         1.31765025214672    2.60627539179301    3.85161734608803
C         5.68312126221551   -8.81750656687422    0.88244232735199
O         4.80705508250504   -8.57005570578712    1.96355841732667
C         3.85016728889971   -7.62383398962549    1.82608129255374
C         3.00440296023354   -7.46431982849821    2.95288453966796
C         1.99477666374678   -6.55217029692343    2.94338263421151
C         1.76617057309381   -5.73625940545335    1.81046884986700
C         0.73464222032287   -4.78364321009460    1.77309381938481
C         0.52405458541029   -4.02331384215141    0.64431834264295
N        -0.53365601016338   -3.10250162869731    0.59225463424627
C        -1.47378169497834   -3.28006350871245   -0.28364730995106
C        -2.49372273177695   -2.28296316192385   -0.35218599433139
C        -3.58180069097168   -2.31594626244064   -1.23029094165774
C        -4.49813798898525   -1.28750036974197   -1.21416648303890
C        -4.29222704084854   -0.24335052199224   -0.31149334727657
Br       -5.51547642180044    1.21047764294214   -0.21165994827238
C        -3.19376038159685   -0.26300476391346    0.53401252608735
N        -2.31360256274348   -1.25792883557392    0.52309170352247
C         1.35316754593889   -4.18772871071367   -0.48788566103388
C         2.37732572038415   -5.08799317032130   -0.45862146925815
C         2.61271836759594   -5.89246814897940    0.67967825851880
C         3.65086538433462   -6.84220563910485    0.71035531133887
H         5.13457309356931   -9.15304685905307   -0.00231132666172
H         6.34775958912168   -9.61034728636450    1.21956818859968
H         6.27149228152505   -7.92893400233617    0.63707095970744
H         3.19171296178177   -8.09297600553817    3.80873681928032
H         1.35501278044260   -6.44373242019531    3.80564061511777
H         0.07064992426904   -4.68499540782530    2.61705779367326
H        -1.48712367846296   -4.14775144009456   -0.93277476170645
H        -3.68848250389500   -3.14121386736047   -1.91576364817994
H        -5.34847475286102   -1.28328375397737   -1.87725503703357
H        -3.02927064602903    0.54313235857036    1.23185028397192
H         1.17728223937055   -3.56523502352792   -1.35131655236252
H         3.01970582903779   -5.20248030209776   -1.31865996377412
H         4.27572817615194   -6.94016485928929   -0.16311090997690
Cl        0.30976708883218   -0.57567173307453   -0.71745713255515
