78
 energy: -125.603176545629 gnorm: 0.000149610073 xtb: 6.4.1 (afa7bdf)
Ir       -0.38584282527184   -0.49008960554412    1.56330189110703
C        -1.81058312874494    1.31376663745182    4.10090141170221
C        -0.59056604023277    0.71413382697769    3.49269366127725
C        -0.10734155750142   -0.61165775179902    3.76496621335948
C         1.19721517496242   -0.74020803210643    3.16560941983052
C         2.17475791693549   -1.82594428127071    3.45180021105773
C         1.46394055858678    0.44765870114975    2.43110868970150
C         0.34790030345892    1.35977945273209    2.63238299946133
C         0.38491392253703    2.79462504415914    2.30551303559603
C         0.30967727814780    3.72774791696789    3.33893438807732
C         0.42285495544585    5.07717489111614    3.07175394808433
C         0.60925380936313    5.53697041242473    1.76884846478872
C         0.76180133159221    6.97357281356429    1.49421369803672
C         1.69830530967099    7.41865602703168    0.56273355069312
C         1.85949391207571    8.76953021835546    0.31582119535006
C         1.08393274714045    9.69865406312504    0.99016872990660
C         0.14630777130796    9.26753532036233    1.91455310436901
C        -0.01182101850087    7.91722856369130    2.16752428889922
C         0.66333314384852    4.60035640783883    0.73744301526780
C         0.55561465973025    3.24909749102314    0.99933007139868
C         2.76299569531881    0.80690195891888    1.79995044429379
C        -0.70305936736603   -1.55634497915017    4.75233367465839
H        -1.63660319526618    1.45776862517591    5.16773753376730
H        -2.67113936989762    0.65681160234520    3.99495966747273
H        -2.04107888750620    2.27456513317139    3.65092045495799
H         2.69145069376361   -1.58724791736151    4.38239166545954
H         2.91828275819213   -1.90614097231617    2.66455997644473
H         1.68585448006130   -2.78841506614108    3.57465983494419
H         0.19848998529697    3.39154134974698    4.35810725678720
H         0.39569344910060    5.78431344966193    3.88691146727139
H         2.32024653009247    6.70296781545150    0.04512045316563
H         2.59489493739850    9.10016156803516   -0.40354408038450
H         1.21017154908065   10.75372729463188    0.79618954035404
H        -0.46327305480126    9.98831801678976    2.44035148219950
H        -0.75505104344467    7.59147354624355    2.88060179296083
H         0.78029115185933    4.93515413848084   -0.28215785616098
H         0.58432531494981    2.53990856154683    0.18535587739856
H         3.19777062256465   -0.04055588561913    1.27574786645675
H         2.64131706077678    1.62881142696379    1.10081634032492
H         3.46087311136033    1.11863682091881    2.57842189713458
H        -1.78659507772444   -1.48042173116068    4.76356554502912
H        -0.41683148283268   -2.58100772843702    4.53296644805164
H        -0.33568753025778   -1.30928867977624    5.74907790127033
C         0.32238135235610   -7.13791646248729    2.79067914847457
O         1.49371953155182   -6.66264525212840    2.14779021712166
C         1.48971070588843   -5.44215500632458    1.58698287199553
C         2.68253193140166   -5.05422488860366    0.96331116012037
C         2.75900272912722   -3.81082377936180    0.37515906954159
F         3.91345724241116   -3.44242142919934   -0.21717382242348
C         1.70657139157850   -2.91268103716163    0.38268468336963
C         0.52069626351390   -3.31210319644233    0.98956148859181
N        -0.56133916694175   -2.42171388205436    0.99086168276698
C        -1.74437457198038   -2.83013616386194    0.65746937771138
C        -2.78447487564057   -1.84991347095695    0.61985805729827
C        -4.10728866141850   -2.15391179704361    0.23866232747376
C        -5.02739418514224   -1.14826911009325    0.16643027745576
C        -4.61657881045375    0.18252905350009    0.40749999726924
C        -5.50102257336561    1.26802574038050    0.27482941140100
C        -5.05178930761311    2.55092021186208    0.46134219336250
Cl       -6.13088991603825    3.88942365347457    0.28211822287349
C        -3.70341845254240    2.79758013863576    0.77756044451771
C        -2.83275049208377    1.75592070235090    0.93676246732034
C        -3.25775380470965    0.42202972344615    0.77373653202491
N        -2.38881282517225   -0.60496581780079    0.93392212663565
C         0.40549286047818   -4.56602122727352    1.59094307762196
H         0.57395685558245   -8.13531988710335    3.14431953438037
H        -0.51438470529775   -7.20128731705055    2.09139839861593
H         0.05586718693130   -6.50784389081410    3.64248901124832
H         3.52340840890971   -5.72704609867072    0.95114068373032
H         1.78545906695591   -1.95250628485849   -0.10041011060333
H        -1.92984041080617   -3.85119819414947    0.34494542093435
H        -4.36654919298444   -3.17612061083252    0.01717989890954
H        -6.05523785284770   -1.34601113788921   -0.09461054293762
H        -6.52889037163581    1.07814794310005    0.01010897788496
H        -3.36280666561472    3.81431945118885    0.88719012697839
H        -1.79214839407766    1.94987613713086    1.13975790455612
H        -0.51951040378629   -4.82873079325052    2.07772699553009
Cl        0.08179955826220    0.07218451493348   -0.70826548361578
