61
 energy: -99.216475952253 gnorm: 0.000865986408 xtb: 6.4.1 (afa7bdf)
Ir       -0.87036129360459   -1.36968084112876    1.50800995857113
C        -1.89756509850704    0.86513003616323    4.02777313558260
C        -0.86238603934153    0.04532920472514    3.34485400987725
C        -0.55434366153369   -1.31580067578117    3.71486453245843
C        -1.22620098433225   -2.06949168527143    4.81157550961646
C         0.69129262785131   -1.67409092875923    3.09432520119416
C         1.52867791745357   -2.84749709800441    3.46456519830811
C         1.06624599257066   -0.60189910046043    2.22641736874998
C         2.35090655041058   -0.46360730822677    1.48761934427881
C         0.09924826676294    0.47044445675744    2.39104863698363
C         0.28443584796095    1.83999938321786    1.83447093453535
H        -1.58962186294223    1.00116521843705    5.06499704347144
H        -2.86488102219433    0.36914016018003    4.03479960019919
H        -2.00544027420622    1.84143390830702    3.56848123462215
H        -2.28909354792472   -1.84785497165396    4.84518872262466
H        -1.08814785435335   -3.14058592281778    4.69503045649871
H        -0.78923003378400   -1.77551886601190    5.76663741045675
H         0.92269773794011   -3.70358168779323    3.74679893237046
H         2.19713293265059   -3.14001515227181    2.66017898657667
H         2.13901459926188   -2.56954083092997    4.32478745179673
H         2.18614058116948   -0.01668402536449    0.50997508500073
H         2.84104839670646   -1.42413991814633    1.36034464642016
H         3.01546602621958    0.19399429850691    2.04909175929279
H        -0.60138672614129    2.45061250417361    1.97307259441554
H         0.51034036201096    1.79373312126276    0.77177721602387
H         1.12457839654262    2.31965798526255    2.33625314577506
C        -7.11022461579414    0.38094722178685   -0.52218587723289
O        -5.77540404030490    0.45890950244947   -0.04086411855075
C        -5.06854131899435   -0.65108198255827    0.12651685006719
C        -5.48840017050397   -1.95864261893009   -0.13772694018449
C        -4.59905709612168   -2.99307710869225    0.06298146767280
C        -3.32006106491840   -2.73010081015955    0.55351372449676
C        -2.29398225898874   -3.71633789036787    0.65172008240982
N        -1.10593464688483   -3.31827843466339    0.97947597854360
C        -0.04406693426793   -4.23414052832786    0.99396818604887
C        -0.14562387756124   -5.43335115328403    1.70168544698851
C         0.92257989950587   -6.31255951473665    1.71285725743888
C         2.07046213774781   -5.99843777819133    1.00865206470079
S         3.44892613801256   -7.15777500472813    1.01887043688415
C         3.02064585898799   -8.35938167418857   -0.26465221584201
O         4.64449197883666   -6.45046915049380    0.62640021903806
O         3.46737001700484   -7.82493810413196    2.29944811258720
C         2.17773963841148   -4.81804320582228    0.29523733817024
C         1.12270582903366   -3.92375255774533    0.29389153747322
N        -2.92348569493977   -1.46640961391006    0.87489629592169
C        -3.76010544613135   -0.47549726744207    0.62845035802694
Br       -3.21743407889422    1.29426140798218    0.91357045499767
H        -7.73633982532605   -0.20166232778637    0.15670935679670
H        -7.13904610131260   -0.04850074488645   -1.52572179743850
H        -7.46196358070643    1.40956508209082   -0.55390342583217
H        -6.47817247238346   -2.15519119194660   -0.51586648538295
H        -4.87881901024041   -4.00748555504137   -0.16986776611853
H        -2.49346899494106   -4.74519429820399    0.37406713606850
H        -1.04274457052025   -5.65631084803620    2.25823079300615
H         0.88713633890689   -7.23181228894048    2.27492289922013
H         3.82998596536993   -9.07672407520592   -0.32545118918970
H         2.10051859263642   -8.84822726426192    0.02543135689917
H         2.91415664992953   -7.82581777596233   -1.19949769750358
H         3.09498784068601   -4.61100531268546   -0.23245602641319
H         1.17372145691096   -2.99654157854277   -0.25619674709624
Cl       -0.50073137890158   -0.82474481886243   -0.79034618233549
