57
 energy: -96.195860330621 gnorm: 0.000667419904 xtb: 6.4.1 (afa7bdf)
Ir       -0.54861137554401   -1.01622101372596    1.27800533569088
C        -1.75146046355694    1.08607289146964    3.85423479305003
C        -0.66904506453309    0.32571988307923    3.17979943059242
C        -0.33368815139245   -1.04178318267770    3.50933320162694
C        -1.02659140585597   -1.85558721767365    4.54636757266744
C         0.94275861284783   -1.34074155656344    2.92343171158571
C         1.80065239348496   -2.50347707806082    3.27617069875033
C         1.32151676757786   -0.21955306082076    2.11319505663677
C         2.63242867772833   -0.01244848357715    1.44290361146265
C         0.31686673643533    0.81911745642897    2.28512663268997
C         0.47959164723545    2.21550443295828    1.79532421829138
H        -1.48414017012712    1.18737583498070    4.90682633549150
H        -2.70273341244913    0.56191116610216    3.80804103434729
H        -1.87279919143441    2.07673975774257    3.43075021321733
H        -2.09509169853642   -1.66064447923001    4.54934810199842
H        -0.85758071798494   -2.91770215434670    4.39449270672446
H        -0.63324319634700   -1.58784015593787    5.52787715772196
H         1.20788337665923   -3.38008677938707    3.52061004021411
H         2.49006689335863   -2.75349268829648    2.47531175004695
H         2.38492781321366   -2.23272709994683    4.15667693920749
H         2.49998522072517    0.48917261015434    0.48725410133412
H         3.14998517304828   -0.95306451643164    1.28309312339870
H         3.25317895824485    0.62582402712216    2.07237682849478
H        -0.43421119579456    2.78884904290719    1.91335697296588
H         0.76057010267221    2.22255063267294    0.74482746939015
H         1.27595566195430    2.69978142306737    2.36028286025208
C         5.15181900685582   -5.95987726807985    1.77691183596134
S         4.04879551085265   -6.57629004094674    0.47961157897711
O         3.60517350716030   -7.90503842696759    0.82750187740099
O         4.68829556772871   -6.40282019114018   -0.80302039914033
C         2.62704614029934   -5.46856646680531    0.55108275862574
C         1.47490083690272   -5.88093552853418    1.19429892413083
C         0.37308132395299   -5.04424353879672    1.22643489907147
C         0.44739788762361   -3.78680760677653    0.62545087356544
N        -0.65846946791092   -2.92316186463163    0.62236638699066
C        -1.79905883816488   -3.36358623782996    0.18966221748104
C        -2.86472454392286   -2.42054465724498    0.08563764959179
N        -2.57711065368740   -1.16847412755730    0.52438219932984
C        -3.45989254586347   -0.20351850891506    0.27617970750237
Br       -2.99163870518996    1.55106766554581    0.72620886655232
C        -4.69503379423347   -0.42429351998702   -0.31886240685888
C        -5.03383014401688   -1.70899649474336   -0.71785030924834
C        -4.09430135556016   -2.70309136771906   -0.52484026667488
F        -4.33314869483504   -3.95164801235650   -0.93335816407483
C         1.62214006871879   -3.37161710467170   -0.00487356443913
C         2.70939657213075   -4.22501455548473   -0.05107590922278
H         6.03895150956766   -6.58130173052867    1.77231778881459
H         4.63478580248328   -6.04473690386438    2.72333161898583
H         5.40732835752870   -4.93463330744138    1.54424024807519
H         1.45243225606528   -6.86169531096899    1.64178057222504
H        -0.53301762267489   -5.35208713249866    1.72516124768254
H        -1.92849998353410   -4.37829249489781   -0.16939072539511
H        -5.37506541385039    0.39922709451997   -0.46730091821967
H        -5.98158528468798   -1.92907545722854   -1.18261237275216
H         1.64983016749510   -2.40310928479276   -0.48058244232636
H         3.61454452433908   -3.94934523461466   -0.56789125898899
Cl       -0.12102498317929   -0.28180707606617   -0.95248741147386
