71
 energy: -100.365456194860 gnorm: 0.000629326910 xtb: 6.4.1 (afa7bdf)
Ir       -0.73312931633756   -0.87521407707738    1.90650072590763
C        -3.13911855440989    0.90919612161145    3.60184872202310
C        -1.79421621688359    0.27086441081296    3.55031461399798
C        -1.48513350553050   -1.05802579626330    4.00881465073312
C        -0.05172563149990   -1.18176126685252    4.06594902727261
C         0.70005160938647   -2.27183211438838    4.74970177240968
C         0.51592305167932    0.01213984907160    3.54246496187739
C        -0.57153654572042    0.91977118663502    3.21965666558330
C        -0.41873741823859    2.34363533204621    2.87884378600503
C         0.23290505729112    3.19211947159346    3.77156212857252
C         0.35825314599027    4.53824125327644    3.49234310682986
C        -0.14844081837789    5.07363509658380    2.30948170890535
C         0.00034814947815    6.50534483333944    2.00738112305685
C         0.35454997898942    6.92635731512306    0.72708568379651
C         0.50158668577388    8.27194137506202    0.44478883324166
C         0.28977292080762    9.21877805929129    1.43402968720365
C        -0.06704693077361    8.81111634905375    2.70908087698050
C        -0.20725135976345    7.46541770030722    2.99531970425350
C        -0.79160923125911    4.21962303126671    1.41622018390094
C        -0.93117847652428    2.87560260485076    1.69967463609224
C         1.96258992880925    0.37132617693805    3.53777644264908
C        -2.46684959953701   -2.00261345773006    4.61623773972992
H        -3.39675142786418    1.08683168623583    4.64683567217918
H        -3.91022945400445    0.26866533537656    3.17911805519488
H        -3.13177134640873    1.86832330155950    3.08987675974087
H         1.67453701072367   -2.43106759263863    4.29546225004220
H         0.13969454670408   -3.20279990986500    4.75765502966949
H         0.86349132667054   -1.97525722980906    5.78709523672347
H         0.62955731924542    2.79692067099686    4.69432361262194
H         0.87536969482761    5.18181377443564    4.18857472263988
H         0.53757181916638    6.19304699687425   -0.04500872269218
H         0.78455003097694    8.58499243032642   -0.54992723545110
H         0.40256325899641   10.26993539647421    1.21213252287231
H        -0.23718101049235    9.54563857341234    3.48294371355115
H        -0.49960795597021    7.15641651205709    3.98845956251697
H        -1.19679750600910    4.61727641014927    0.49769307364145
H        -1.40489893947505    2.22431105849044    0.98064434656109
H         2.58515523879875   -0.49084326392178    3.31063348489496
H         2.16042498989627    1.15136759552508    2.80662204171823
H         2.25013049174327    0.74063144015205    4.52287002825384
H        -3.44784077604168   -1.88979551967139    4.16373516689358
H        -2.14492453733092   -3.03426418902832    4.50464031991019
H        -2.55843012947239   -1.79061505136160    5.68219518674203
C         4.07918992172625   -1.61115299948938   -1.40158236785561
C         3.75455673518969   -2.64712837180534   -0.65188973980907
C         2.34806097012362   -3.07840164925992   -0.37027133725012
C         2.05842753913469   -3.04208339054365    1.13215861167872
C         0.66638829558630   -3.59720716105571    1.46834122595686
N        -0.37728896271124   -2.69087089940690    1.05772351587576
C        -1.06269956183985   -2.96411727879660    0.00088025442038
C        -2.08696440827331   -2.03345376903123   -0.38057011381625
C        -2.88583667320364   -2.15651191912987   -1.51724446001422
C        -3.83697088995193   -1.18782011969842   -1.77726399390249
C        -3.96258945338543   -0.12353792268532   -0.89110015149793
C        -3.13340876510240   -0.06328509715307    0.21496214643419
N        -2.21699406152628   -0.99156724583188    0.47624989570095
H         3.32822186572955   -0.99253706500864   -1.86543671302305
H         5.10413153108798   -1.33470096709559   -1.58492980121141
H         4.52722725831802   -3.25032467758108   -0.19066024502754
H         1.65630124430072   -2.41712504612629   -0.89335695006779
H         2.21537870544924   -4.09910598576365   -0.74100687997439
H         2.80075579910748   -3.64044348823814    1.66212467291559
H         2.13010155938002   -2.00914725436121    1.47570329618897
H         0.53593130170556   -4.56500366553594    0.97375765194034
H         0.58946320675746   -3.73686910876883    2.54719503028010
H        -0.88765749688682   -3.86118593812870   -0.58301975971534
H        -2.74471067683128   -2.99689580009194   -2.17738712980630
H        -4.46741748975125   -1.25430984328183   -2.64963948030384
H        -4.69358671740067    0.65187141091474   -1.05209012354033
H        -3.21517221279293    0.75550875217952    0.91362612956316
Cl        0.52685786805689    0.06572062051168    0.11790320665608
