80
 energy: -115.129318342396 gnorm: 0.000434995634 xtb: 6.4.1 (afa7bdf)
Ir       -0.66691297779090   -0.84952611567662    1.45886795316310
C        -2.05257329929920    1.52764247412316    3.63709000269829
C        -0.92828914637861    0.64612105302884    3.20437628022825
C        -0.80975743896547   -0.72252822569626    3.66943246829604
C        -1.76600403425772   -1.37842806371207    4.60819167279746
C         0.51087525909916   -1.18286669192860    3.36442118888203
C         1.14369946796797   -2.41433344674531    3.91230507980746
C         1.14116017333372   -0.18148916566545    2.56707204463525
C         2.57346397285874   -0.18128095266956    2.14635135409342
C         0.26286934215285    0.98150306654079    2.51501135581117
C         0.75269958550229    2.33141274931496    2.06487125855167
C        -0.13602235101139    3.06610223130276    1.05652864007491
C         0.53037394947487    4.37374938532001    0.63665529494681
C         0.78102062730381    5.26268504428601    1.85236009260885
C         1.64772211672590    4.53377531513960    2.87571041663255
C         0.99413422557232    3.22071523120595    3.29746228528885
H        -3.01664090786263    1.06281346522664    3.44081307960773
H        -2.02849267912958    2.49393352761741    3.14745269832318
H        -1.97122385342874    1.68245965990444    4.71386787629152
H        -1.66720474195567   -2.45986545522305    4.57921559721224
H        -1.55350990239886   -1.04618490022499    5.62510260874300
H        -2.79266093154710   -1.11099745096196    4.37364964861631
H         0.41689263710918   -3.21057353118529    4.04783071971501
H         1.94458146191584   -2.77546752436093    3.27360545866336
H         1.56835572256201   -2.17555301137845    4.88817873979253
H         2.98504056289555   -1.18586058383321    2.16967532004032
H         2.68355529674421    0.21504039325404    1.13940011573108
H         3.15231720139443    0.44511671505006    2.82558825862409
H         1.71836385949143    2.17974260280888    1.57358193869667
H        -1.10762876563876    3.29960528342539    1.49278135969849
H        -0.28622117815249    2.43268256050379    0.18074074972754
H        -0.10526531720663    4.89547514342749   -0.08170704897007
H         1.47996392455446    4.15862400317794    0.14136831932843
H        -0.17400484477318    5.53320679075299    2.30991008916140
H         1.27214241512953    6.18687140178145    1.54141735993716
H         1.79853064756158    5.16578632242076    3.75352153641650
H         2.62880084947916    4.33227218638728    2.43903098260332
H         0.04647769434771    3.43294512655717    3.79279428645121
H         1.63591873320966    2.69816575388175    4.00952876614173
C         5.26969687617451   -9.08793162951619    2.22516280816539
O         5.21288418506403   -7.78731508727722    1.67229363813938
C         4.03841207038013   -7.11660518791353    1.66850484446145
C         2.83188678938152   -7.62307166279925    2.20081343830531
C         1.68968547743709   -6.87519590617363    2.15566286540084
C         1.67852346249200   -5.58954635189491    1.57459883902242
C         0.51006241742597   -4.81497229136944    1.50447470289709
C         0.53414576210294   -3.55462041592998    0.94137098282565
N        -0.61965660088085   -2.77291924424533    0.87169506928908
C        -1.74492537956946   -3.30896342939780    0.51073107835767
C        -2.88177797092427   -2.44936114838944    0.42069706747471
C        -4.14943472027048   -2.90089376605760   -0.00192148835652
C        -5.17080469832500   -2.00303192142721   -0.11774754999240
C        -4.91674767423231   -0.63393904069638    0.11617019952753
C        -5.90190169620186    0.35766532931641   -0.05591326456424
C        -5.59986963726653    1.68135740544904    0.12039678680576
C        -4.29392856076462    2.06576829049896    0.46298666534100
C        -3.32016478891107    1.12512112645167    0.66400963496863
C        -3.60425212980124   -0.24441021557009    0.51613451483782
N        -2.63455533434933   -1.16746539630635    0.72623455872637
C         1.74419573040607   -3.03435391997915    0.42358739382371
C         2.88329714179860   -3.78041181425558    0.46261921872602
C         2.89375837544819   -5.07391730447397    1.04044588123347
C         4.05391801003033   -5.85394082011307    1.10256512341550
H         4.61828527108255   -9.77996170837460    1.68385205312561
H         5.00635856528215   -9.08264648727692    3.28657839976742
H         6.30460251129521   -9.40511934183221    2.11240665841849
H         2.80639060625820   -8.60425391047998    2.64640757955989
H         0.77265797990781   -7.27106088943569    2.56533016819012
H        -0.40242328911102   -5.20523196625616    1.93070257823125
H        -1.80893572729392   -4.34913942169585    0.21493345442856
H        -4.28647664641882   -3.94772328096529   -0.21786960260346
H        -6.16152741592708   -2.31526358495357   -0.41031810254365
H        -6.89509919977443    0.05133924402364   -0.34660070033676
H        -6.35740414569065    2.43638405425029   -0.01999151226591
H        -4.06083138852636    3.11455350032873    0.56084360184208
H        -2.30471238606512    1.40618503489905    0.88902147293060
H         1.72516698930718   -2.05835853539208   -0.03460427271272
H         3.80133683866203   -3.39425299430638    0.04676075721878
H         4.98150890693931   -5.47674652869803    0.70189376800156
Cl       -0.11187593324920   -0.18463514896783   -0.76425215916591
