53
 energy: -92.126230708178 gnorm: 0.000340597423 xtb: 6.4.1 (afa7bdf)
Ir       -0.72202187412775   -1.06451770367385    1.36999937882556
C        -2.07440542318059    1.06917168274568    3.84457806902701
C        -0.95271735898668    0.30619145811769    3.24182843247759
C        -0.62504185475988   -1.05168726366591    3.60881935426992
C        -1.36517101131442   -1.85828830498307    4.61796555804764
C         0.68265628171582   -1.35016898373023    3.09179798861924
C         1.52687173489315   -2.50166076864734    3.50753833337598
C         1.09680293058216   -0.23698557845966    2.28910465530480
C         2.43781940407494   -0.02364602463016    1.68406785369329
C         0.07481603891398    0.79340528704513    2.38933886321561
C         0.25323596626580    2.18164704151574    1.88392389976551
H        -1.86774994573950    1.18410681811610    4.90946622774879
H        -3.01994976545637    0.54081101151943    3.75140245922556
H        -2.17507670669248    2.05448336759214    3.40321900509859
H        -2.43265869886712   -1.66368396823807    4.57041968300711
H        -1.18853098695097   -2.92142595969195    4.48274673102062
H        -1.01726261297250   -1.58385373105956    5.61471019874928
H         0.93184079824713   -3.38918735880256    3.70285762699092
H         2.28402572046009   -2.73565829491793    2.76525069377739
H         2.03584443333512   -2.22762212814966    4.43297041240672
H         2.34752124072847    0.42657296763958    0.69823256674325
H         2.99243117433042   -0.95306075689401    1.60290476266273
H         3.00198990247697    0.66478201835543    2.31371776938229
H        -0.66182998237865    2.75885527107346    1.96761152032616
H         0.56565310698661    2.17299161226149    0.84212397439065
H         1.03503217436948    2.67240747001494    2.46360816647714
O         3.51473251609737   -7.48857810918353    1.40724359235436
N         3.64133581474813   -6.40516933984149    0.86923852308929
O         4.66788309759155   -6.01912739466917    0.34347353913079
C         2.50394741094215   -5.52583031394127    0.85047923355619
C         1.30597972577091   -5.94390947991453    1.42263680415658
C         0.20964453317106   -5.10640097777749    1.38792967774396
C         0.31600349496476   -3.84672187195279    0.79246005793287
N        -0.78821987023124   -2.98773130723685    0.72776608944232
C        -1.90101791866632   -3.43066648764510    0.22773432309715
C        -2.96415141295005   -2.49400170099058    0.06711711708374
N        -2.70238307719467   -1.23562376850446    0.50622451634793
C        -3.57856731647529   -0.27826739869247    0.20827333613842
Br       -3.13665634031359    1.48561491459007    0.65012519250233
C        -4.78649458711084   -0.51358611427034   -0.43565277751156
C        -5.10061425727929   -1.80379498688510   -0.83665796142557
C        -4.16311746889767   -2.78965610647327   -0.59640130153152
F        -4.37530149004901   -4.04265430341149   -1.00325124440581
C         1.52758179104988   -3.42805270832727    0.23615776393324
C         2.61881715797461   -4.27153338548608    0.25553603475268
H         1.24985444094025   -6.92013109221574    1.87883142356464
H        -0.72344006871484   -5.41611045321420    1.83225173546386
H        -2.00338295483298   -4.44357680077726   -0.14561459690681
H        -5.46456253335979    0.30443967519141   -0.62011331247148
H        -6.02647102000337   -2.03387784944915   -1.33937543452203
H         1.58357766493330   -2.45790733304690   -0.23347900817419
H         3.56014641997466   -3.97983298105933   -0.18411468989970
Cl       -0.15838143802166   -0.37096050524332   -0.84016481805351
