74
 energy: -125.985816330093 gnorm: 0.000222946239 xtb: 6.4.1 (afa7bdf)
Ir       -1.00954951656920   -0.48787470743242    1.19599167717440
C        -2.25461788593334    1.68442758524166    3.59957803701751
C        -1.14527210223645    0.84895252855650    3.06989284775421
C        -0.96314808192282   -0.53602282624130    3.42395592632934
C        -1.82289394642960   -1.29138411382726    4.37965157998173
C         0.33480392605163   -0.94313709543301    2.96500980139087
C         1.04475810436457   -2.18201405395263    3.38324991896118
C         0.88331657331561    0.12273582642660    2.19459513481415
C         2.27352292226712    0.18153594700807    1.65883547923995
C        -0.03269688830463    1.25664637758217    2.28209179981063
C         0.33225885022695    2.62005668715169    1.88232201099983
C         0.13658068797040    3.68612846389421    2.76004427482180
C         0.54698235307430    4.95093274572133    2.38601201983515
F         0.33024546547011    5.97326733110862    3.24229482380686
C         1.16705179908865    5.21393870605495    1.17920097068666
C         1.35176597427351    4.13614279514845    0.33187089644634
F         1.94493952530582    4.34576042266835   -0.86164201120438
C         0.94812579460457    2.85498727968348    0.65366476393675
H        -2.31887386269268    2.63703583400645    3.08518244413236
H        -2.07509804796460    1.86398360480711    4.66075981225463
H        -3.20765710309453    1.16774757061597    3.51582738377074
H        -1.71947448404460   -2.36305669115658    4.23633249383711
H        -1.51745118882275   -1.05533376594464    5.39952597276948
H        -2.86808009670745   -1.01740792144453    4.26886047188280
H         1.57395664384239   -1.97209021477398    4.31409691373263
H         0.35222976867208   -2.99790757687137    3.56842642765495
H         1.77180029708190   -2.49818399568955    2.64149995850167
H         2.28947703404228    0.05013150508734    0.57825087808705
H         2.70998948522486    1.15481420379484    1.87520619144094
H         2.88795829878031   -0.59360356796924    2.10695007054303
H        -0.29772434352189    3.54464309764984    3.73501761881204
H         1.47106491074876    6.20908144024201    0.90364688070838
H         1.07857421381764    2.06188355218730   -0.06412555903962
C        -2.83540694821533    8.12139631036092    2.00714916500564
O        -3.16749224448213    6.75314409727797    1.78789115504879
C        -2.40293639391882    6.07799394719877    0.92997231304475
O        -1.46893959504952    6.56905760051642    0.33431693747752
C        -2.80990909824954    4.65506309267981    0.79811228452650
C        -3.91539726152185    4.13669922622519    1.47056831024595
C        -4.24809702329461    2.80508892586441    1.31985780552232
C        -3.46105695482672    1.96113712098503    0.53198501828299
C        -3.87960910361379    0.56765557656752    0.30699580616779
C        -5.19957128588344    0.36169458479288   -0.10887533503752
C        -5.64563532152385   -0.90676888701356   -0.43261588225188
C        -4.74691867215000   -1.95563277978123   -0.34966007042749
C        -3.45331458600845   -1.69680889100018    0.09566927768962
C        -2.45891363029918   -2.72418362451414    0.18432944422620
N        -1.28302965852739   -2.39577708741193    0.60965058348194
C        -0.28139250052269   -3.37550852905680    0.68729543633729
C         0.98684062626196   -3.11539297087561    0.16766506901458
C         1.96897222720013   -4.08548709013393    0.21558250016541
C         1.69125947679821   -5.31151505594732    0.80491221088969
Br        3.06095006158848   -6.65307562350444    0.89336834522089
C         0.43831761389523   -5.57852887834196    1.33963483657406
C        -0.54856565917803   -4.61467478845378    1.27412335268766
N        -3.02665645578609   -0.45450909660326    0.44716386663325
C        -2.36315014831602    2.48435925609275   -0.14642052686028
C        -2.05461474403312    3.82530129413273   -0.02558635456930
H        -2.80465676998598    8.66035696968928    1.05853901985453
H        -3.61241747903677    8.51850827052831    2.65392835562697
H        -1.85748710424691    8.19533883549832    2.48723374212665
H        -4.50766078185709    4.78218426003684    2.09854143212209
H        -5.10816318719508    2.41025589525201    1.83857307576247
H        -5.85229027766015    1.21539080070234   -0.19463368711721
H        -6.66155966497376   -1.06857387500185   -0.75644344197556
H        -5.02663853012861   -2.96103747208336   -0.61811148490964
H        -2.68098925519787   -3.73145546089957   -0.14989649692049
H         1.17969641402627   -2.16480801186363   -0.30358034172888
H         2.94443432255579   -3.89282827881162   -0.20142659759606
H         0.23922593721928   -6.53241955047674    1.80084838333044
H        -1.51910464872639   -4.81147141269185    1.70278448279946
H        -1.78033858625967    1.85560695396099   -0.79897744357322
H        -1.22987143277883    4.25451810158084   -0.57170730171950
Cl       -0.25154275630274   -0.10241672939114   -1.03693915608270
