98
 energy: -150.973266552955 gnorm: 0.000285230437 xtb: 6.4.1 (afa7bdf)
Ir       -0.80021111707136   -1.00269613620041    1.03950840507081
C        -1.53571929737843    0.65551557988639    3.90244109365639
C        -0.50710168248747    0.00603813601508    3.04318920867996
C        -0.14657205324496   -1.37766548261128    3.12951879189644
C         0.98933860850736   -1.59479927922892    2.27077838229485
C         1.85091217959859   -2.81018729492687    2.25886644633345
C         1.28310655484417   -0.36667426290771    1.61007108845598
C         0.34985023025833    0.63892251354575    2.08186507538257
C         0.54434428290638    2.07824632612735    1.88278204781979
C         0.55829249733974    2.93755777224724    2.98168154701580
C         0.84947197394806    4.27602689657207    2.82239412484328
C         1.14816253960909    4.80240805749280    1.56623841441751
C         1.49439175951777    6.22179049414508    1.41428946922246
C         2.47625044262946    6.62403346499670    0.51052714014321
C         2.81471948790358    7.95827944724949    0.38246326465987
C         2.17734102087135    8.91707946704513    1.15295793261752
C         1.19833050924371    8.53040021019978    2.05350642619871
C         0.86088537074583    7.19534810681592    2.18458411343895
C         1.13049746413332    3.94153709358518    0.47027232365152
C         0.82924974973489    2.60331240157967    0.62300183537963
C         2.47420852445466   -0.11399164220815    0.75172572099443
C        -0.67962829725661   -2.34691773689268    4.12966393836514
H        -1.16360119485743    0.70433504046520    4.92665337481904
H        -2.45701178922687    0.07601446423051    3.91761968174300
H        -1.75116516493193    1.66094672416656    3.55496780925218
H         2.66691333049819   -2.66628243795772    2.96871472154899
H         2.28039278216863   -2.98385318164254    1.27614172413465
H         1.29638268100350   -3.69565243306419    2.55531958611601
H         0.38814053956794    2.55022000738751    3.97332032259955
H         0.88320916497136    4.91645770287954    3.69095623164502
H         2.99226894655630    5.88474830015384   -0.08375120592503
H         3.58077168395352    8.25289936493065   -0.32029758763290
H         2.44060926563826    9.95963739331767    1.05114526225677
H         0.69354868087371    9.27422270576645    2.65317292810323
H         0.07983226030057    6.90812302043105    2.87348985237543
H         1.33051554007343    4.33421485971447   -0.51494866281462
H         0.79640707109314    1.95852421645953   -0.24116636700839
H         2.22659867291311   -0.23284165040138   -0.30296085706229
H         2.82356661344160    0.90653395661932    0.89498673272447
H         3.27200774562473   -0.80980764364674    0.99863531135212
H        -1.72143801929436   -2.14152615325829    4.36007458997022
H        -0.58768485264619   -3.36935498854167    3.77287061471255
H        -0.10510362715388   -2.25944046432889    5.05241946556000
C        -2.14366075499793    8.04854060455069    0.68334703592310
O        -2.34306662546356    6.66924795269163    0.97587960782069
C        -1.81773776120893    5.79133904835001    0.11682482292524
O        -1.16557913395844    6.11469114172125   -0.85079620647518
C        -2.17055006390563    4.38837524614827    0.45129099922206
C        -1.85183234203824    3.39245804835038   -0.46733527813232
C        -2.24655760557398    2.08682757110872   -0.25285110755692
C        -2.98264817767711    1.76054643118348    0.88351301221514
C        -3.60912831892950    0.43102224506116    0.97359334691408
C        -5.00198594506385    0.39898306286144    1.09988419636379
C        -5.68826986662535   -0.79798304232114    1.00245760897011
C        -4.96219303307382   -1.95156543722779    0.76219941338474
C        -3.57424784656031   -1.86852082103541    0.70318178623461
C        -2.74239293203345   -3.01857985629956    0.49343903771227
N        -1.46346993680572   -2.85417657748769    0.53663292011887
C        -0.61582220257949   -3.95892929525077    0.37569258467693
C        -0.85196246123803   -5.13053793594481    1.09807412513995
C         0.00074282528713   -6.20676392536679    0.93789754285119
C         1.06142920119049   -6.13725965555922    0.05177193870834
C         1.29773956795424   -4.97819948724959   -0.69134602509332
C         2.40452611985186   -4.91390717684546   -1.65454376814638
C         2.75854258106901   -6.03596939300153   -2.40736974178270
C         3.78464934274736   -5.98012338236216   -3.32228677033533
C         4.50432092910351   -4.79719861729394   -3.51334240118702
O         5.49753462774180   -4.84987717788440   -4.43996747350316
C         6.24231549783328   -3.67985848639318   -4.70667156038026
C         4.16361412262003   -3.67492911210192   -2.76381471689761
C         3.12371028710860   -3.73951324562694   -1.85457207243853
C         0.45906447538585   -3.88291715800694   -0.50414158639763
N        -2.90031108551491   -0.69632091659837    0.83745157024251
C        -3.28479690222362    2.75643204821204    1.81473924511014
C        -2.86685127830821    4.05618884382736    1.61139469227909
H        -2.65662877858886    8.31277842670016   -0.24344766116708
H        -1.07881857307719    8.26143616198799    0.57176726633240
H        -2.56286547046907    8.59658193309688    1.52234346528581
H        -1.31995351156361    3.66826547866616   -1.36431848978844
H        -2.02574728491650    1.32901364687680   -0.98632973526297
H        -5.52840867451348    1.32947464830403    1.23924051253523
H        -6.76281300904139   -0.82649650645818    1.08967216085813
H        -5.44469131355185   -2.90642559400525    0.63407262872507
H        -3.18666047767715   -3.98364311454450    0.27623047714930
H        -1.67374088380040   -5.17750119164604    1.79607763382748
H        -0.16358503106892   -7.10726284635307    1.50922458671259
H         1.72473292667153   -6.98123775882718   -0.05340145133001
H         2.20496983964721   -6.95583683241998   -2.29664907256494
H         4.05171042866834   -6.84246557239138   -3.91247009321111
H         5.59985625775000   -2.87562112990577   -5.07732021006980
H         6.95577500287205   -3.95827820804239   -5.48012191464161
H         6.78409290791747   -3.34104760818577   -3.81868303386864
H         4.70033361693353   -2.74734686798285   -2.88278477784420
H         2.88280909524059   -2.85626783209870   -1.28261612539760
H         0.59788941459014   -2.98092715504313   -1.07840265552116
H        -3.85968700099831    2.51255382713370    2.69563534463124
H        -3.10248594587166    4.82509109425658    2.32927811506134
Cl       -0.45910591862831   -0.61145147952635   -1.28476106792400
