67
 energy: -104.541144781549 gnorm: 0.000820281542 xtb: 6.4.1 (afa7bdf)
Ir       -0.42891548643806   -0.62765607442026    1.56414903007698
C        -1.97199380980704    1.27992828189287    3.96539143007359
C        -0.74817088219867    0.61658461818256    3.43158518203320
C        -0.38477056961415   -0.73234163622065    3.78555587908762
C        -1.14356689482670   -1.60026091454392    4.73000652713439
C         0.96077723766300   -0.96811884324550    3.32976593794691
C         1.79861520751000   -2.13673886937058    3.71659661401139
C         1.37685845205487    0.17402472094801    2.59764185653493
C         2.74077746279585    0.41835961612899    2.04714768201751
C         0.30985976066103    1.16908252681351    2.65130030914819
C         0.50984185609520    2.59324947203847    2.20738067625812
C        -0.58907104227998    3.14548626962684    1.29280412623595
C        -0.22023198459850    4.55438803397446    0.83590401592944
C        -0.03132897562055    5.47459078422616    2.03961856712105
C         1.04161258360976    4.92117756502345    2.97380127200615
C         0.68538404918319    3.50888710301210    3.43014098185506
H        -2.84622352638058    0.64178769062554    3.85509934423197
H        -2.16435741094067    2.23365758624791    3.48813376682120
H        -1.82674716026511    1.45474319427588    5.03230886503328
H        -0.88580671806159   -2.64681086028146    4.59587961923953
H        -0.89126694473793   -1.31935316302179    5.75335048787752
H        -2.21565580556562   -1.47989340236867    4.60268103532317
H         1.20258945309040   -3.03946039248174    3.81935281789738
H         2.58860106478749   -2.32243618820432    2.99495179714287
H         2.26197194616712   -1.92638728724863    4.68109204188170
H         3.33174343471617   -0.49251063884335    2.05025921120966
H         2.68657895867968    0.79535428489912    1.02759397925980
H         3.25149957037977    1.16281639024244    2.65769686444578
H         1.44004897030365    2.62667798480867    1.63251112039674
H        -1.54230599613977    3.19546184004355    1.81882595714298
H        -0.69924106212087    2.49039151384585    0.42720157139642
H        -1.00532717405309    4.94800004763298    0.18724324084346
H         0.70370157893954    4.52202109487884    0.25427427132671
H        -0.97531768767478    5.56453079967125    2.58235499545795
H         0.25175486186793    6.47336977549925    1.70179201147004
H         1.14788745600766    5.57088170328650    3.84499504185878
H         2.00134476306993    4.90693851520151    2.45213832644906
H        -0.23777569563255    3.53934834814837    4.00901958639940
H         1.47442919263933    3.11800192094830    4.07524573255531
F         4.77775162991670   -5.92201820521010    0.33796992900945
C         3.76144064609021   -6.18249361724231    1.17479667874602
F         4.29096756893513   -6.16513869142419    2.41871396782674
F         3.39540930587010   -7.45544429931836    0.94913940114033
C         2.62045878128848   -5.21419018879264    1.04016695642281
C         1.34770090642556   -5.60155674916682    1.44520253966520
C         0.29824899862732   -4.70781772911696    1.34805935010714
C         0.52458579594274   -3.41890319901104    0.86564347049944
N        -0.52963560185617   -2.49851310860286    0.77914740991734
C        -1.60838739579215   -2.80890288651419    0.13223165986072
C        -2.63379376659416   -1.81044838583617    0.08104212085013
C        -3.83076221341246   -1.94176169024669   -0.62480580987219
C        -4.72573748045697   -0.88851694557146   -0.62990248708458
C        -4.39623032356434    0.26986382136771    0.06618004504504
C        -3.19070451930211    0.33350763265745    0.74343199169444
N        -2.32716318834960   -0.67843036702329    0.76517202004246
C         1.80512417886922   -3.03287062674270    0.47206373893812
C         2.85049241153921   -3.93267213266153    0.55098107788435
H         1.18163959280175   -6.59804656179118    1.82395591506366
H        -0.69026984680412   -4.99776191682551    1.66598508403826
H        -1.71424814941560   -3.75596608842531   -0.38399861489459
H        -4.03285490345135   -2.85461294627979   -1.16152934280403
H        -5.65787525250806   -0.96122723773645   -1.16769288122158
H        -5.06354089941719    1.11585118996718    0.08514212677140
H        -2.90620018324059    1.22383061056258    1.28276041283783
H         1.95926640258706   -2.03878871255518    0.08184165549345
H         3.84042782181369   -3.64784707910941    0.23139013227733
Cl        0.24824965018204    0.07020069877509   -0.61950132139763
