72
 energy: -123.974469986005 gnorm: 0.000457244857 xtb: 6.4.1 (afa7bdf)
Ir       -1.05653382533244   -1.41590420786875    0.63281479346375
C        -1.45630978626703    0.41789197754454    3.49424749216543
C        -0.54486398053271   -0.22821242391399    2.51534632939733
C        -0.06142306339726   -1.57221734780077    2.63760106845435
C        -0.34634548152235   -2.49059286453611    3.77561394600244
C         0.92189876764900   -1.78444274688367    1.61103507046359
C         1.89148539807672   -2.91049221084199    1.54895513959907
C         1.01956985045018   -0.57925005551336    0.83185559184093
C         2.04345497620917   -0.32267485465631   -0.21418418717562
C         0.10191260894842    0.38319003540404    1.38477434198071
C         0.10678813415445    1.80883500592355    1.02995415629355
C         0.24873366554389    2.77311234808877    2.02586267157390
C         0.29736747466709    4.10676135401497    1.66674227267825
F         0.43831831048536    5.03094505511975    2.63840269743400
C         0.20972770196302    4.53120486368438    0.35339196752078
C         0.07577683925397    3.54937059100946   -0.61280880048813
F        -0.01349199661528    3.92403830140911   -1.90524554171268
C         0.02819784550482    2.20393699811037   -0.30498558091196
H        -1.81033096622412    1.37912063518659    3.13745080724452
H        -0.91490458735606    0.56507157939870    4.42985131508158
H        -2.31018972134022   -0.21926324110405    3.71425413932874
H        -0.20863717700050   -3.52821445112707    3.48487123675917
H         0.34531558083695   -2.27213987758248    4.58930016923200
H        -1.35726529696128   -2.35362931065201    4.14783256922708
H         2.77559143868266   -2.62724322359907    2.12252941506180
H         1.48312942386958   -3.81778780403661    1.98293606907007
H         2.20097603464080   -3.11309739451531    0.52774731683031
H         1.71412945084786   -0.69641425127402   -1.18320643759200
H         2.22247186717522    0.74495288989054   -0.31429385476854
H         2.97193212171386   -0.82733189173788    0.04192761631319
H         0.34823045596615    2.50329851018471    3.06362623596898
H         0.24547777164966    5.57613780452304    0.09466889981800
H        -0.10556758618111    1.47879269942657   -1.09193581593810
C         6.22222631339333   -6.58548708156592   -4.39530611344810
O         4.94984676324355   -6.02176605913731   -4.63745632845259
C         4.06551958790426   -5.93527457518410   -3.61030323253841
C         2.81796195607138   -5.38628740951061   -3.92273305158180
C         1.84674106297665   -5.25742221499747   -2.95627919376740
C         2.08078667356223   -5.68012238899431   -1.64605932319375
C         1.03146106122565   -5.57643486696595   -0.62383724496918
C         0.84890765310923   -6.59386470636125    0.31590789035393
C        -0.16010312924476   -6.51601916637500    1.25983135607046
C        -1.01763335765621   -5.43103736873427    1.28307484048074
C        -0.83150596038981   -4.40051382948859    0.36134670831586
N        -1.69948036783613   -3.29503596026634    0.35521562592987
C        -2.96842808527487   -3.51499167411429    0.22728349190992
C        -3.83803852681329   -2.38249483634541    0.18605167124008
N        -3.25032673524501   -1.18373528682841    0.42173039212584
C        -3.99822903694725   -0.09122095366607    0.29541017218061
Br       -3.19365833214575    1.58451391738270    0.58168582974844
C        -5.35059793473577   -0.11519901463843   -0.02641280741490
C        -5.97397640852440   -1.33304384460762   -0.24765809447412
C        -5.19685360933718   -2.47067847029338   -0.14222937150057
F        -5.72451258208530   -3.67631973453383   -0.36258053397573
C         0.19084831897960   -4.46743247199215   -0.57965651838818
C         3.32606152900476   -6.22129140611083   -1.34128638932162
C         4.31192020627150   -6.34575842332092   -2.30294791453088
H         6.14038772391376   -7.62096895204056   -4.05207580338323
H         6.73874627009893   -6.56253709063659   -5.35307064602798
H         6.78578354904785   -5.99772992991417   -3.66480961297682
H         2.63755230235093   -5.07408679188813   -4.93929330872341
H         0.88382240995265   -4.85214590440463   -3.22732918154486
H         1.48868524241678   -7.46153088648404    0.28887967424349
H        -0.28934790578915   -7.31215414642758    1.97623054177022
H        -1.80874249423078   -5.36418527550693    2.01368507457566
H        -3.36531238106403   -4.51535212401513    0.09401546660179
H        -5.89967661491571    0.81012379468223   -0.09616917619910
H        -7.02076698137750   -1.40032302708136   -0.49883407922957
H         0.30264682200539   -3.65979381695576   -1.28669355042147
H         3.54396603835349   -6.53226524300069   -0.33071692747089
H         5.26569912115555   -6.76444315578138   -2.02447972234352
Cl       -1.12309040980658   -1.09304111632883   -1.71332771900339
