70
 energy: -105.924661624751 gnorm: 0.000528083354 xtb: 6.4.1 (afa7bdf)
Ir       -0.90006404113409   -0.86886233948771    1.36561522314223
C        -2.27007909396562    1.37929894683256    3.68399371319954
C        -1.15843015962614    0.51027788269972    3.19948458881713
C        -1.05787264982502   -0.88513192679613    3.58164793943095
C        -2.02992789434647   -1.59204822480334    4.46352185781901
C         0.25469907925643   -1.34540448518001    3.24757785203096
C         0.86590130865369   -2.61869888875336    3.71728691990428
C         0.90293702476092   -0.30333113441057    2.51415637988263
C         2.33614884307999   -0.29940467725260    2.09828035591843
C         0.04102995926884    0.87348365249357    2.53582729628475
C         0.54559914525700    2.24186644177751    2.16637959576417
C        -0.33448511760098    3.04541718506193    1.20347002545140
C         0.35428549572383    4.36296250568744    0.85633972514355
C         0.61946191129231    5.17897338329155    2.11917358515919
C         1.47106918824756    4.37932207296127    3.10190026539384
C         0.79549374433380    3.05536503843929    3.44896687977919
H        -3.24080570311504    0.93733917354231    3.46948735527499
H        -2.23576086360501    2.37082028693941    3.24860000779308
H        -2.18035837914191    1.47327062028328    4.76723421876391
H        -1.95165521829436   -2.66980660890079    4.35165790800839
H        -1.81417877685827   -1.34372392115527    5.50352958824074
H        -3.04998219217352   -1.28612410806284    4.24831467862580
H         0.13167031087796   -3.41712040019565    3.77832133475884
H         1.68197340520339   -2.93713750277055    3.07543037978413
H         1.26626908070254   -2.45401697969639    4.71850492590913
H         2.72711580175572   -1.31075866594919    2.04181574143887
H         2.45971442304309    0.17619009341899    1.12826690802851
H         2.92404575771847    0.25652849142666    2.82900044172072
H         1.50983042433190    2.10890291078547    1.66759099640294
H        -1.30061907596607    3.27077235129246    1.65557054190252
H        -0.49669556727190    2.46572646323175    0.29365792817243
H        -0.27215682068246    4.93434160428039    0.16838710820339
H         1.30011892202594    4.15970703754828    0.34908634848516
H        -0.33089562557896    5.44186411972655    2.59020575371801
H         1.12813830457003    6.10971846240383    1.86026087344080
H         1.62898530220714    4.95878385420249    4.01395443156440
H         2.45025092866858    4.18707361800496    2.65685173099706
H        -0.15057839573846    3.25497599857353    3.95241378876490
H         1.42677737313594    2.48427235087890    4.13237353301842
Cl       -7.04760335314575    2.95190675621125    0.01622787731318
C        -5.83648483648486    1.72606655862945    0.17305717300006
C        -4.53306705690195    2.09905205967996    0.54925015641077
C        -3.56315054637590    1.14706860984960    0.69387367777050
C        -3.84038662743676   -0.21308726941114    0.45423044042862
N        -2.86743867264664   -1.14179139940238    0.60165015573831
C        -3.10556508234601   -2.40059764362277    0.20121783565514
C        -1.96039298404321   -3.25458541048773    0.22098645224620
N        -0.84059985079233   -2.73785396829332    0.62247691919380
C         0.32961711239626   -3.50673148846076    0.60271786301547
C         0.33872561003214   -4.81365069382309    1.09460994596696
C         1.50318166146099   -5.55587810162737    1.06761415563515
C         2.65680021300002   -4.99808165039633    0.53476712597469
Br        4.27325258761904   -6.03390450115122    0.49429043614553
C         2.66009335784856   -3.70211131033607    0.03629048993172
C         1.49948711588623   -2.95512134635819    0.07893845177829
C        -4.37090809941740   -2.82764261110021   -0.25254572351905
C        -5.39792835456232   -1.92999089261996   -0.30599615460855
C        -5.15003660817554   -0.57758187836814    0.02196672491421
C        -6.14073632076910    0.41441698947683   -0.09114875134779
H        -4.31153458023027    3.14114663135323    0.71201758590441
H        -2.55029156585002    1.42151963362856    0.94050143977477
H        -2.01558120508757   -4.26797421798088   -0.15911579838295
H        -0.55609876492143   -5.23777065183961    1.52305320398209
H         1.51769423238848   -6.56138199382119    1.45630224641954
H         3.56176101765691   -3.28353665975158   -0.38130624205308
H         1.47439881636373   -1.95358634132405   -0.32104434558108
H        -4.50355071693647   -3.85741357039657   -0.54131568162327
H        -6.38641418892839   -2.22672269695392   -0.61972856220468
H        -7.13232268939212    0.13318282052831   -0.40777194622094
Cl       -0.34183977939726   -0.04265244416985   -0.79797187778288
