86
 energy: -133.432922329933 gnorm: 0.000271910691 xtb: 6.4.1 (afa7bdf)
Ir       -0.09937703982573   -0.75274555239381    1.50515040408420
C        -1.33239877875093    0.67193447499064    4.29993575476826
C        -0.14690629855189    0.20293568602481    3.52836472071612
C         0.47105603457079   -1.07593796530512    3.68204577323109
C         1.64366762709943   -1.10606034714744    2.84773383656111
C         2.67748898247602   -2.18233744004378    2.82764553081764
C         1.80355532342424    0.19549474850431    2.26147879395274
C         0.66818560955091    0.99045203254535    2.63151335669912
C         0.49782762411605    2.41692071976582    2.32377048521017
C         0.28255524692054    3.34499711742229    3.34183997689806
C         0.15027918415194    4.68757800426603    3.04684492575631
C         0.23182213427935    5.14494997133361    1.73242799388450
C         0.10903874856762    6.57773335882311    1.42563113028559
C         0.95672253617550    7.17613812181896    0.49560893723348
C         0.85058510535216    8.52587188463609    0.21442851318179
C        -0.10839686155337    9.29692300137342    0.85121027268979
C        -0.95923438821878    8.71052782364603    1.77414048793990
C        -0.84962327983725    7.36266280563430    2.06275595808981
C         0.44366457516984    4.21288251911316    0.71690569547848
C         0.57565024739966    2.86922324605534    1.00562931495660
C         3.00494696587100    0.66566764755483    1.52362413608092
C         0.08209771339043   -2.08287147301402    4.70788630690374
H        -1.02894551598346    0.88936096775315    5.32472545746355
H        -2.10010336190241   -0.09718802984400    4.34195657092617
H        -1.75257208025265    1.57446852099292    3.86575043076896
H         3.34646011027147   -2.06023036314108    3.68007840517336
H         3.26540906999643   -2.12783058124109    1.91597815985234
H         2.22012397902515   -3.16699531410934    2.88591386169314
H         0.25311459805310    3.01840672792335    4.36928503436582
H         0.01076855507089    5.39735709188707    3.84791877010827
H         1.71915833028620    6.58583348120975    0.00850542051057
H         1.51968934084033    8.97954543584438   -0.50227473379342
H        -0.19105576747955   10.35087561361122    0.62977997587127
H        -1.71104382731747    9.30745246895132    2.26966390928322
H        -1.52579028363340    6.91053842086915    2.77342276839146
H         0.49374748103491    4.54515123937293   -0.30945495443126
H         0.72169235344798    2.15608461150775    0.20761801773121
H         3.06505886079129    0.20413751178182    0.53843962581396
H         2.97467930662695    1.74458071209016    1.39415150975121
H         3.90156097458173    0.39095621257210    2.07731438622783
H        -0.98717952168203   -2.28090593549071    4.69128943216839
H         0.62905115203202   -3.01067400865613    4.57572043242533
H         0.32523614896287   -1.68129374182622    5.69281365356441
C         3.34505776046609   -7.19992427181720   -6.15266534082348
O         3.93030163188261   -7.23759606225947   -4.86821268065391
C         3.22471185517117   -6.75139922505934   -3.81190631214195
C         1.95012540463457   -6.19737252372336   -3.88457322394361
C         1.33120543182540   -5.73328325311302   -2.73787119467340
C         1.94978800796411   -5.81686993649546   -1.49478677366436
C         1.27408982678723   -5.34203152316255   -0.27937679608257
C         1.36483933223159   -6.05982365380256    0.91412138913035
C         0.71135367011445   -5.62293540790043    2.05262794826566
C        -0.02514090360534   -4.45175988080435    2.03509998986079
C        -0.11552090210457   -3.72298463690147    0.85230143058123
N        -0.84951850463538   -2.52200015896472    0.81657870158206
C        -1.89753625661663   -2.43515733541925    0.06390027098562
C        -2.53904350822826   -1.15800496524023   -0.02252031084806
C        -3.67954405578361   -0.89290313402327   -0.78801494982402
C        -4.16993825821224    0.39047607258264   -0.82301068540269
Br       -5.71467864099741    0.83807093914825   -1.83141124414988
C        -3.52152585783854    1.41665119965663   -0.09796064808635
O        -4.03835120939400    2.63582927218417   -0.17698917225313
C        -3.43982900254258    3.70869265143037    0.53431148539483
C        -2.39899609937759    1.05675025646466    0.64966241284781
N        -1.92585017675797   -0.18448559930981    0.68799392108202
C         0.51718110811572   -4.17433232656335   -0.30139047360992
C         3.22742627522209   -6.37605530526615   -1.43145940353177
C         3.85723539427638   -6.82987280020350   -2.56803712413305
H         2.42758756152391   -7.79503386137593   -6.18947101152153
H         4.08450203087221   -7.63422041187175   -6.82300906349159
H         3.13147520340489   -6.17317062141828   -6.46440300914711
H         1.42968072873839   -6.12611761711819   -4.82652354516667
H         0.33551249649142   -5.32313399751646   -2.81577792195064
H         1.93055693438491   -6.97800697352946    0.93891178535402
H         0.77268697578500   -6.20247885064827    2.96092417018393
H        -0.56041113508789   -4.11831887899377    2.90787754910723
H        -2.27126015794024   -3.28685884788173   -0.49240813843186
H        -4.15573821552287   -1.68258132199964   -1.34628866083940
H        -2.40098354865681    3.85732759305650    0.23156762305397
H        -4.02706124503126    4.58586322401026    0.27262278501223
H        -3.49365228417429    3.53856760506355    1.61144042891596
H        -1.86087321208759    1.79788081114595    1.22117592437135
H         0.45590875469863   -3.58002439476723   -1.19979894055334
H         3.74192455838601   -6.43593796675804   -0.48445790868209
H         4.84756393565491   -7.25515255330771   -2.52467572457453
Cl        0.68888638141392   -0.54055375527631   -0.72936799680097
