89
 energy: -136.282058295077 gnorm: 0.000316728112 xtb: 6.4.1 (afa7bdf)
Ir        0.27435472193533   -0.62843747154258    1.73880078838893
C        -1.05427062971143    0.62939090726802    4.58088850346252
C         0.15665997064328    0.31961230758734    3.76852519022769
C         0.94931174331813   -0.86250881442520    3.90130698692062
C         2.09376735264680   -0.73047452480613    3.03978598469274
C         3.27403295215777   -1.64383876431136    3.00257031758359
C         2.04698145482012    0.57090231071871    2.44032823987682
C         0.82411345986338    1.20501138378489    2.84613607822006
C         0.46325083061156    2.60209744450842    2.56619635930362
C         0.22786740518643    3.49064689328440    3.61440603344803
C        -0.06120367880053    4.81579716221736    3.35605975618795
C        -0.12658784217074    5.29340150641067    2.04760448514692
C        -0.39887520777356    6.71374821649592    1.78094987954985
C         0.31192647899600    7.39448377482540    0.79440616655341
C         0.07533702638512    8.73573240298446    0.55567922947399
C        -0.87938593790296    9.41723784719294    1.29306203744538
C        -1.59514089348662    8.74884643442152    2.27300155157717
C        -1.35515032270598    7.40914133709816    2.51790021935541
C         0.09254186480396    4.39723650195580    1.00185253982972
C         0.38667693885543    3.07196143917881    1.25501819248612
C         3.14399057287317    1.20033105669727    1.65831170771077
C         0.73059660749378   -1.90721343950241    4.94139338920300
H        -0.74759210910258    0.89533843131888    5.59336328786702
H        -1.70890581735626   -0.23597828875832    4.65340619279383
H        -1.60874610866313    1.46301340349328    4.15897461918620
H         3.94354297036174   -1.40588546248446    3.82978151371564
H         3.82021951525362   -1.52397623394240    2.07116476485389
H         2.97131006699525   -2.68395532922109    3.09461126850829
H         0.30673112759962    3.14952641803327    4.63468479285033
H        -0.20923966747934    5.49830208773916    4.17940278101071
H         1.07106311722540    6.87573048494825    0.22735940729378
H         0.64024032316079    9.25340646121731   -0.20603084431432
H        -1.06327387550279   10.46494104352566    1.10550547212381
H        -2.34289444650681    9.27517788501581    2.84840447307183
H        -1.92738748458064    6.89294704774324    3.27486079331015
H         0.01984807478989    4.74061951134001   -0.01915702142332
H         0.54600683706939    2.38781868539384    0.43430306704643
H         3.26267095796906    0.71655789353987    0.68948904687826
H         2.93546029795937    2.25385865058214    1.49041641321023
H         4.08201936816163    1.09811389542358    2.20206804365030
H        -0.29467852844787   -2.27048211144291    4.93570181658685
H         1.41477611519380   -2.74067641413924    4.81579858327646
H         0.91440628448972   -1.46217368487314    5.92022120073317
C         2.40983099908187   -8.39690915910993    7.85436578815660
O         3.36155019222780   -8.03496377131522    6.87553477133140
C         2.94215320773825   -7.35655841562859    5.77448264902600
C         3.93070923823487   -7.03856283853610    4.83872498019908
C         3.61096872199335   -6.36262720661920    3.68324088428975
C         2.29679116781430   -5.96913991679828    3.42266757739068
C         1.95664989165338   -5.25440494240643    2.18389317746417
C         2.55954332245610   -5.59556224295560    0.97229905030697
C         2.22800599311736   -4.92928951290670   -0.19399122470894
C         1.29316029790090   -3.91029420925938   -0.18147505323742
C         0.69954851361012   -3.54718035161255    1.02607097260854
N        -0.22384667770987   -2.48696135930921    1.05901749891755
C        -1.31401678093525   -2.56346060958259    0.36381957710493
C        -2.14851813482064   -1.40314001869118    0.32801330828070
C        -3.36620479000898   -1.30844075708663   -0.35386108335194
C        -4.04731779693984   -0.11439164941524   -0.35426291243164
C        -3.49870195724158    0.99060194650359    0.32072882272407
C        -4.16045688028916    2.26741956878404    0.32758506534213
C        -3.77116530294280    3.50198045423674    0.80821482700390
C        -4.82680013423969    4.38691668811793    0.52190039271502
C        -5.78343359662727    3.64054980941635   -0.10785349844683
O        -5.39167191441648    2.37078422154767   -0.23055311336871
C        -2.28363437303394    0.81049609406125    0.99039204020933
N        -1.63582734742267   -0.34203835084929    1.00300575315968
C         1.02534673618935   -4.22006510753928    2.19743456676387
C         1.32059040139147   -6.27918804054325    4.36418703959710
C         1.62962994915608   -6.96667075006180    5.52408705721556
H         2.96972509157265   -8.92331279298641    8.62504728937560
H         1.64731842910437   -9.06398146579978    7.44101999906632
H         1.93180734262502   -7.51513128125474    8.29104706585727
H         4.94590859385026   -7.33961622199705    5.04337802898214
H         4.39431954029298   -6.11721428082386    2.98225859736583
H         3.27502121096698   -6.40231581345768    0.94324357519237
H         2.69735494617536   -5.20950224293737   -1.12451236370148
H         1.04531983131969   -3.36806771454913   -1.08023711780102
H        -1.57627901398170   -3.46220504228442   -0.18285963703990
H        -3.74682407196687   -2.16903098932938   -0.87986720150021
H        -4.98630553469926   -0.00728956463140   -0.87332770020620
H        -2.84499118504990    3.75002485989973    1.28505300016351
H        -4.87330428795481    5.43146562215657    0.74799731228007
H        -6.74802369750232    3.89923478387339   -0.49833402376195
H        -1.83229622160899    1.63504269545049    1.52115147447632
H         0.53282499457965   -3.94332073296614    3.11461016396603
H         0.29200039705940   -6.00823557479330    4.17999131656754
H         0.84029336076715   -7.19985017200264    6.22064141436371
Cl        0.93858944216456   -0.28923393057809   -0.52237241694694
