65
 energy: -104.737724202323 gnorm: 0.000355018336 xtb: 6.4.1 (afa7bdf)
Ir        0.04125360366466    0.02714370870448    1.94247577035225
C        -1.52267123818422    1.23239767107258    4.83097302774490
C        -0.32005991928675    1.11073742084225    3.96709646527037
C         0.65478246213609    0.07456183508123    4.12974956425236
C         0.60628098582606   -0.93788189621811    5.22326320800920
C         1.77971499191021    0.38769072994508    3.28825773222048
C         3.14238372828489   -0.21210737859038    3.36857976849537
C         1.48135825223523    1.60411429511018    2.58734019523312
C         2.45844412969587    2.38195586916589    1.77959284859915
C         0.16494579640009    2.03553182759819    2.98455790955544
C        -0.37887807475155    3.35998578507140    2.65676129179389
C        -0.76323566981952    4.22916097912837    3.67519025831162
C        -1.21596269814158    5.49204050000039    3.34359470794539
F        -1.58013906325352    6.32916026655770    4.33777799616742
C        -1.30830669949932    5.93516019956508    2.03676511803939
C        -0.91754643717944    5.04849620627365    1.04858313198567
F        -0.99616536475534    5.44216725445558   -0.24068361649289
C        -0.45063718379950    3.78033192385608    1.32953745767097
H        -2.16786238181325    2.04451104998311    4.51540521059577
H        -1.19341256275864    1.41840059216211    5.85458471938705
H        -2.09352621439995    0.30666737630339    4.84063414096851
H         1.42599346362650   -1.64458602637403    5.15028388831080
H         0.68906419381329   -0.42260545304124    6.18084923341498
H        -0.33613100747431   -1.47962955982993    5.22187630779972
H         3.71543217148913    0.34719875484438    4.10999242280303
H         3.11245591061051   -1.25037676311587    3.68138149266926
H         3.66434057457078   -0.13269328108961    2.41869739298502
H         2.58728299180526    1.94500899406361    0.79010977056237
H         2.11596012662426    3.40525114167015    1.65081882642338
H         3.42693736844059    2.38411729784058    2.27605331641292
H        -0.69097833145137    3.94906194522781    4.71268454428792
H        -1.66592928208254    6.92313069389464    1.79963963779037
H        -0.17526671117084    3.11854524193428    0.52353375620132
C         1.84269152150062   -5.68945284985069    4.47686553451668
C         1.06220385478508   -5.77177805877870    3.41560783507779
C         0.91098452376661   -4.76116348861519    2.31535096959695
C         1.76187857019688   -3.50645023828704    2.48455807655132
C         1.65109445951393   -2.54514005979309    1.28927999906077
N         0.37378534913170   -1.86821419862394    1.26389242212153
C        -0.59048639614975   -2.43142497885970    0.62417824292926
C        -1.85951975841147   -1.77595836155955    0.55037478877505
C        -2.92728185984182   -2.28539477260056   -0.18604748472438
C        -4.09801507303467   -1.56516894225956   -0.29643628527814
C        -4.17488383732510   -0.32248999277576    0.33588172167249
O        -5.21283610655339    0.50613500912422    0.33305276658647
C        -6.40745832388442    0.13574902229191   -0.34113865691255
C        -3.04644806790072    0.11380789532690    1.06551711979373
Br       -3.23001404291032    1.79735940868015    1.88285991656828
N        -1.92900000865186   -0.57835656511161    1.19268327722966
H         2.48451598222468   -4.84868421514485    4.67257031702303
H         1.87484921410911   -6.48024897293316    5.20672518455191
H         0.44516082438980   -6.65170708999958    3.28029905528258
H         1.16923146294416   -5.25799796497240    1.37490316671790
H        -0.14777665107067   -4.49011580895466    2.26128216942303
H         2.80891581638784   -3.79525746784792    2.57413591529391
H         1.45607373140848   -2.99063910327341    3.39305373912242
H         1.78848422452158   -3.10852516898394    0.36143389388250
H         2.43254373958649   -1.78912823303934    1.35182772589012
H        -0.44970489552728   -3.36591053389665    0.09096706522664
H        -2.82526219615375   -3.23906439478275   -0.67785166697798
H        -4.92645759087036   -1.94891782916414   -0.86868583719037
H        -6.82602592618073   -0.77935557355905    0.08275091625339
H        -7.09445976199504    0.96317606684075   -0.17873633041745
H        -6.23024437138210    0.01069975664024   -1.41138532357981
Cl        0.32274868209103    0.63044550265344   -0.34476072981776
