76
 energy: -108.981608678921 gnorm: 0.000535221700 xtb: 6.4.1 (afa7bdf)
Ir       -0.67612933030205   -0.52475951497788    1.25185379073161
C        -1.54223436254916    1.78778307499408    3.72669489376048
C        -0.61966353738759    0.77479820812975    3.14141080937451
C        -0.68947671801319   -0.63802975542791    3.46491435742668
C        -1.68958113549199   -1.24081051473237    4.39331854559493
C         0.52716641686212   -1.25211820964873    3.02881371462665
C         0.98849689987285   -2.61816772597008    3.39752241151801
C         1.26095876540791   -0.27601734911002    2.28810166175144
C         2.64715248017621   -0.41222571154179    1.75928450795417
C         0.56366197791429    0.99500311075043    2.40167598300219
C         1.15796733099779    2.29372465965116    1.96990887176614
H        -1.38210247996230    1.81626536474994    4.80509721066892
H        -2.58193820911436    1.52555591698275    3.55101343726912
H        -1.35270053454437    2.77797760495892    3.32710295706502
H        -2.66673268704141   -0.78402463814312    4.26292488147185
H        -1.77673328193895   -2.31239023012783    4.23609351241632
H        -1.37189508312795   -1.07476683515718    5.42344674633097
H         0.15686432947990   -3.31283587647312    3.48134858308976
H         1.69919522437805   -3.00958528090031    2.67532961484557
H         1.48331280823469   -2.56619233217186    4.36822053784211
H         2.74369334590375    0.10067821096326    0.80499631513974
H         2.91991151725931   -1.45517126189992    1.62906581687608
H         3.34710261574369    0.04528002892904    2.45947771070249
H         0.50654954979740    3.12936254408512    2.20380804947709
H         1.35313294752380    2.29043120131750    0.89896081550616
H         2.10899031743636    2.44032728785293    2.48127947272773
C         4.84505683052053   -8.43470262154224    0.22278834096183
O         3.54349455504010   -8.62984877262653    0.73774075307093
C         2.67566875179494   -7.59161436526969    0.73055954961298
C         1.39505633062810   -7.88369959515458    1.26439594479356
C         0.42797500630466   -6.92820339663045    1.31792499928053
C         0.67538451613865   -5.62046758045248    0.83794890036528
C        -0.30614040378646   -4.61855152161648    0.87118928603113
C        -0.03487788038715   -3.34648782662277    0.40659099882978
N        -1.01177447742608   -2.34714381660216    0.46508567853905
C        -2.22253812199168   -2.61020445499763    0.10572899816019
C        -3.22836877838053   -1.59885594812287    0.26043932947934
C        -4.56603975348639   -1.89425320176882    0.05190186806246
C        -5.50245372286174   -0.89987739122043    0.31224594540226
C        -5.05958725472464    0.34516575205115    0.67627991093001
C        -3.67303057787738    0.63252522837379    0.77291186548426
N        -3.24950790796659    1.89061442285982    1.03303957650508
C        -4.16615853132002    2.93438812687615    1.46469380699801
C        -4.72435515178330    3.72695604303701    0.28068379888771
C        -3.56507354447026    4.32385834630611   -0.51465012379160
C        -2.58436951995340    3.21966539151033   -0.90141227578179
C        -2.10780468083521    2.46549553022120    0.34339245102859
N        -2.77754966418272   -0.37666683412578    0.64955037818156
C         1.24434466535178   -3.04720780782216   -0.11077791287660
C         2.20435735951299   -4.01476183965353   -0.17005556286246
C         1.95810456967046   -5.32379745751286    0.30329481956297
C         2.94525168362297   -6.32575139836959    0.26150537330255
H         5.35024388791483   -9.39198550404697    0.33388971598078
H         4.81523416948349   -8.15907665345646   -0.83490163567931
H         5.38387054494224   -7.67004214346098    0.78879789793526
H         1.22184346923606   -8.88601303918707    1.62239733925892
H        -0.54435159338495   -7.16091185220699    1.72479106691347
H        -1.27151821094971   -4.84741064934062    1.29864231206355
H        -2.49038789496113   -3.57337146156365   -0.31542633366018
H        -4.85906430860210   -2.87546103735389   -0.27951043798681
H        -6.55765529842092   -1.09569176487382    0.20545948224892
H        -5.77779980276105    1.12875052316610    0.83806806136361
H        -4.95990191861617    2.51308274649539    2.08010801685153
H        -3.58551560568978    3.61495776787677    2.09415516349997
H        -5.38167131934055    4.51623717451547    0.64687766309188
H        -5.30737991522986    3.07208579893123   -0.36913387870520
H        -3.94043852803441    4.82376768317693   -1.40887364065029
H        -3.05126265446539    5.07217767112984    0.09307145644393
H        -1.71898082378963    3.64009389346798   -1.41396257447119
H        -3.06766961149828    2.51699647070477   -1.58404637196086
H        -1.40977392039270    1.68455777304277    0.05416571286277
H        -1.60876447777446    3.16212647086079    1.01774222201713
H         1.42819795667093   -2.05421575910670   -0.48682806531603
H         3.17474945773843   -3.78775689873699   -0.58543275000524
H         3.90958620347110   -6.07275420323536   -0.14977569035249
Cl        0.04397772978650    0.08053300499492   -0.97289463884378
