75
 energy: -119.981489737023 gnorm: 0.000619770481 xtb: 6.4.1 (afa7bdf)
Ir       -0.54773667873318   -1.25529482633445    0.66861458906610
C        -1.79689537765045    0.55396672380896    3.30957377663665
C        -0.65378087245599   -0.10483620700712    2.62147951983667
C        -0.23538786676911   -1.45800053793044    2.85733755753545
C        -0.85804984877397   -2.39761255272919    3.83370852044256
C         1.04422756857579   -1.64489286227896    2.21625492693648
C         1.96608394633513   -2.79049952793553    2.45223131147275
C         1.36777616184070   -0.44009553860883    1.52927737018523
C         2.64779288941790   -0.12334518902835    0.84167470281621
C         0.30810851792681    0.51475508299222    1.76304910382270
C         0.43819360741004    1.97110017458590    1.47036165101776
H        -1.51222227475468    0.74509397142732    4.34487395869013
H        -2.67670995412000   -0.08451281379129    3.31891160078017
H        -2.04716975015595    1.50035125974940    2.84151487612859
H        -1.93427522308606   -2.25904834239337    3.88160245934881
H        -0.64182197185453   -3.43098089865226    3.57651983478054
H        -0.44746952874722   -2.20382155986010    4.82529008653455
H         1.42316386883438   -3.70921078485806    2.65592192358532
H         2.62446315717298   -2.95124656126606    1.60291161641220
H         2.58590050258908   -2.56057547290010    3.32020647073299
H         2.46520266348400    0.42122315555567   -0.08231345826642
H         3.21020918302974   -1.02330024515009    0.60997350960997
H         3.25549717991371    0.50965747512866    1.48957107799745
H        -0.49862142020240    2.49644383472256    1.62292624872723
H         0.76957603812866    2.13654269849554    0.44850961101375
H         1.18695727952060    2.39776142350228    2.13896650215382
C        -2.13799779888474    7.59196261212379    0.67936392788275
O        -2.42476290077335    6.19656475391996    0.69678517952324
C        -1.78850140665803    5.43589107685900   -0.19781940144792
O        -0.99168361794935    5.87153727877166   -0.99938503302607
C        -2.16832717982686    4.00294916006016   -0.09574078543180
C        -3.14097178154490    3.56497617648867    0.80241792454153
C        -3.49805668768952    2.23153081047395    0.83417441904539
C        -2.86811421057902    1.30855054572905   -0.00388826752264
C        -3.37655829449093   -0.07144834986081   -0.09709430799508
C        -4.73856452479713   -0.21274634174995   -0.38328024856828
C        -5.27798832422721   -1.46035735269438   -0.63978941134293
C        -4.43001320147005   -2.55341374512630   -0.62177407153328
C        -3.09283932228009   -2.35966263524268   -0.28458267152161
C        -2.15448321472938   -3.44209809513876   -0.23943147262289
N        -0.94408772678663   -3.17531510012561    0.12199596734061
C         0.00098370691793   -4.20666820899269    0.18604712668994
C        -0.29528806693758   -5.39119706457708    0.87568311308227
C         0.63660669788247   -6.39856271064121    0.94458534420607
C         1.88516153664385   -6.27540851915132    0.31958329276755
C         2.90473031157189   -7.30041746977295    0.34308212228502
C         2.66362564429885   -8.58184899853364    1.06421673733217
C         4.06763180126949   -7.05449835887557   -0.30490087507905
C         4.33593278138748   -5.81832175759721   -1.00658646096719
O         5.36470400169185   -5.54994738454028   -1.58884003682901
O         3.34640673547202   -4.87309703156114   -0.99907509977831
C         2.16728599204493   -5.08332233490988   -0.37130974907710
C         1.23527541128639   -4.05024249653044   -0.42571138594061
N        -2.57314339231136   -1.13688533405950    0.00654021890068
C        -1.88242669143033    1.74461323838326   -0.88652630921181
C        -1.54414183448363    3.08398655730192   -0.93598436410620
H        -2.76686144376354    8.03510887118930    1.44664253703656
H        -2.36781261248805    8.01293970590049   -0.30126845952650
H        -1.08190523274251    7.76345397431795    0.89684064795082
H        -3.62109949819473    4.27596941866795    1.45501792410742
H        -4.26774854944660    1.90099956812273    1.51504820719808
H        -5.35058497939205    0.67364163023908   -0.42756267974543
H        -6.32573309684774   -1.57241547073035   -0.86902316084370
H        -4.78302650947966   -3.54470244986563   -0.85456663795071
H        -2.45316736450444   -4.43908594949614   -0.54420167881942
H        -1.24771924780128   -5.49569483257725    1.37173445766282
H         0.40251569883720   -7.30079939533014    1.48496052662568
H         3.53364071732487   -9.22738866497166    0.99066495676051
H         2.45627125047789   -8.39143357160268    2.11554573901681
H         1.80727020689940   -9.09988958901585    0.63604954535129
H         4.86835995582489   -7.77631011284846   -0.33042919078887
H         1.46896128493300   -3.14951363841434   -0.97061746384552
H        -1.40796949781170    1.04198876219174   -1.55162720889423
H        -0.79992952784655    3.44050375516485   -1.63143949473221
Cl        0.14380920649800   -0.91829381060582   -1.59313333614389
