71
 energy: -102.680502383031 gnorm: 0.000572582000 xtb: 6.4.1 (afa7bdf)
Ir       -0.52321925552854   -0.80975683866380    1.37099755960683
C        -1.94590185270935    1.16140151532531    3.79656252661263
C        -0.75236598745761    0.46775032489013    3.23218340456674
C        -0.41102321951255   -0.88986177491504    3.58928427457049
C        -1.16304919449674   -1.72987240285916    4.56501315524711
C         0.91215234840024   -1.16059063008986    3.10104126287772
C         1.73841631176107   -2.34086479838237    3.47744714712994
C         1.32681842507382   -0.03681627778634    2.33219549510172
C         2.68063767591027    0.17128592272009    1.74119956713013
C         0.29257391927303    0.98995771663065    2.42244060644908
C         0.51035412250761    2.40494674675472    1.95708683723441
C        -0.60434651143773    2.97123402117939    1.07031364879874
C        -0.21596867086682    4.36471686372152    0.58307350257937
C         0.03111304136675    5.29563657990566    1.76809791024787
C         1.11958071395254    4.72924093504526    2.67631734957131
C         0.74554009043476    3.33110486577988    3.16147659917235
H        -2.83694032782786    0.54276975865196    3.70906916131861
H        -2.12578874796030    2.11947486339658    3.32274112402579
H        -1.77049643220554    1.33379366616681    4.85932754603057
H        -0.93557113609729   -2.78358508743840    4.43050066903073
H        -0.87449755378400   -1.44852977421134    5.57840176325871
H        -2.23526210040196   -1.58554544504597    4.46708997792710
H         1.12827814365568   -3.23227594393557    3.59553870132286
H         2.50671138691510   -2.54366054147320    2.73772419382672
H         2.22536977226061   -2.13242076373306    4.43076958443958
H         3.24170875033864   -0.75789611111869    1.71636683762201
H         2.60547228352002    0.56005306954733    0.72753474238931
H         3.23281906364285    0.89290307491155    2.34335741752323
H         1.42185915594929    2.41052093276387    1.35206690329810
H        -1.53849754846792    3.05128877740690    1.62744890129797
H        -0.75561006744519    2.30584827082025    0.21857954383747
H        -1.00844702706012    4.77078993118676   -0.04916838349539
H         0.68954647497482    4.30069745315595   -0.02440517131644
H        -0.89328014868961    5.41463684904365    2.33863040317174
H         0.32624359588731    6.28294458695695    1.40765497683286
H         1.26765885969865    5.38728714684245    3.53518448575632
H         2.06207445957804    4.68553344197395    2.12539090879402
H        -0.15769912005992    3.38952108559955    3.76953771033014
H         1.54566135379752    2.92949801231550    3.78609754138172
C        -5.06633023559505    2.42460801642874    0.47761283891964
O        -5.40124681401775    1.16268505920429   -0.08149724701024
C        -4.54132101259505    0.15437517091666   -0.00291297305944
C        -3.30136091330683    0.19020612140982    0.63774825699059
N        -2.47637185265879   -0.85141063656885    0.67424757757493
C        -2.82889006389800   -2.00503743977520    0.06291605147878
C        -1.81649129768051   -3.01388387902821    0.09477315849849
N        -0.68371717694295   -2.68846876253160    0.63317002840826
C         0.36199278677608   -3.61560726316283    0.68748510115624
C         1.64266815042906   -3.22897179598449    0.29375253084840
C         2.67651249667287   -4.14358836065643    0.32030593022758
C         2.47232587036471   -5.44795406084144    0.76345072430082
C         3.59921680854218   -6.42664761472634    0.82757221068885
C         1.19185742043655   -5.81725592294682    1.17118773907293
C         0.14249628775671   -4.92293840751150    1.12548805588743
C        -4.06324821592813   -2.14038903828160   -0.58155164142712
C        -4.91783769594513   -1.06463489998967   -0.61156952610914
Br       -6.61064256118998   -1.16169529824676   -1.46846415831080
H        -4.96669686710614    2.35436877958782    1.56263147674002
H        -4.14884483278773    2.81678376051139    0.03417130121276
H        -5.90115760667170    3.07662711220132    0.23028230925392
H        -2.95812814437243    1.08881224072636    1.12498517591401
H        -1.97661832590607   -3.98416589720729   -0.35991672892286
H         1.79690246544906   -2.22463679808373   -0.07022774733890
H         3.65942938400017   -3.84224751326351   -0.00977808293197
H         3.98270998355642   -6.48248610747279    1.84660682138603
H         3.26326783984396   -7.42201232244354    0.54630739375398
H         4.41503143128238   -6.12880503621461    0.17449972700065
H         1.01772372847618   -6.82234048944875    1.52483094001859
H        -0.84182577249162   -5.21778932855902    1.45653324641998
H        -4.32703447296348   -3.07041530161491   -1.05803983806004
Cl        0.00101116156921   -0.12236710946461   -0.85924903807714
