67
 energy: -102.211413074250 gnorm: 0.000547138385 xtb: 6.4.1 (afa7bdf)
Ir       -0.70148204438354   -0.27386646136982    1.22203552408277
C        -1.90481067321748    1.78904683856323    3.78172630535799
C        -0.92255768842045    0.79014323152820    3.27231994417298
C        -1.11216871017127   -0.64707630123161    3.38222403624700
C        -2.28958353572556   -1.29663188096295    4.02740449640042
C         0.12628450647464   -1.28013565768279    3.06689575245244
C         0.47247845053800   -2.70375559439648    3.32423140705300
C         1.02222085137074   -0.26454223880751    2.58828717170503
C         2.46879290967280   -0.43842804983953    2.28179359517792
C         0.38178890042546    1.02480920082828    2.78797188160961
C         1.09048722702341    2.32847144014105    2.64341850647706
H        -1.92749332696387    1.73107724514055    4.87054622431931
H        -2.90831821571412    1.58111173026831    3.41682302219776
H        -1.63595326114234    2.80184209824616    3.49740813085199
H        -3.20665890439799   -0.76140174558538    3.79639208071765
H        -2.39231149334217   -2.33019701098032    3.70847680392935
H        -2.15766740218610   -1.28812773626422    5.10987930938173
H        -0.39306733944108   -3.35277844714768    3.22604184792614
H         1.25654232411635   -3.05143811327638    2.65779770013457
H         0.83882182724558   -2.78519369866556    4.34847741579359
H         2.78374007310304    0.26145413140265    1.51217592636122
H         2.68257817536769   -1.44957627995138    1.94798549644217
H         3.05304058801576   -0.23961421839327    3.18101896010013
H         0.42610871603540    3.16817903892629    2.82446581419067
H         1.51531234675809    2.42663697013994    1.64570699097530
H         1.90992640837168    2.37223801735398    3.36052396222887
C        -2.62811647205624    8.57289511149579   -1.13269360185799
O        -2.93700886009156    7.19256552682407   -0.95780441327030
C        -2.04167795451280    6.45079689365591   -0.30281430372544
O        -1.00317166829720    6.89150472958826    0.13995723521132
C        -2.46572393817435    5.03414247515237   -0.16518870005390
C        -3.68473815480460    4.57202467838852   -0.65548957717245
C        -4.04154535113484    3.24924746128923   -0.49282435705635
C        -3.20008218581157    2.34593003280498    0.17235938510726
C        -3.61858914133636    0.93780132056482    0.27762543743194
C        -4.99312918817613    0.64989744723191    0.23003385802701
C        -5.44257236346204   -0.64293793048024    0.04597653043044
C        -4.50150381156302   -1.64123974473157   -0.13669981270930
C        -3.15971559173497   -1.31998178655427    0.04725281817109
C        -2.12718382401489   -2.30935564517520   -0.10084819373685
N        -0.91707455407327   -2.00236851899818    0.22774350610366
C         0.11812199460612   -2.93365516581854    0.07538485567656
C        -0.08545770823441   -4.28886596153183    0.35085298637651
C         0.95504332366442   -5.18567079802758    0.20184006653657
C         2.19970784214165   -4.74915462274486   -0.22806028561736
C         2.40398951214472   -3.40428143049030   -0.49998045317211
C         1.37540059629239   -2.49439469142679   -0.34085441561395
N        -2.72861224006221   -0.06664234305609    0.33287048764392
C        -1.97168711640894    2.81801120049484    0.62923014208705
C        -1.60716075204425    4.13798426498574    0.46468031822243
H        -2.37416111165994    9.02717801243056   -0.17324346091733
H        -3.51999112440426    9.02827020362965   -1.55383996197443
H        -1.78077219516899    8.68519894268503   -1.81150737936817
H        -4.34365816437178    5.25239881048845   -1.17032206369525
H        -4.97146301043586    2.91872961731160   -0.92660626552165
H        -5.70266322358728    1.45151996885449    0.34693958601400
H        -6.49847483790330   -0.85951337663143    0.01098143191938
H        -4.78562800667599   -2.65229923482006   -0.37654442831461
H        -2.37246763286048   -3.27013141686475   -0.53985863990778
H        -1.04314369246599   -4.62962558325364    0.71324008816094
H         0.79585481568765   -6.22889718342246    0.42660944330146
H         3.00829609832807   -5.45396877360979   -0.34394279617564
H         3.37004851618372   -3.06042768327285   -0.83540533472932
H         1.51642627291022   -1.44863091805777   -0.56352187694848
H        -1.28354421847212    2.13891998632735    1.10079924812283
H        -0.65180494576233    4.49888042336378    0.81307791375979
Cl        0.22047335838602    0.73714719342400   -0.74091832304504
