92
 energy: -132.943576428275 gnorm: 0.000865934104 xtb: 6.4.1 (afa7bdf)
Ir       -0.54943346752667   -0.15243799294750    1.95091024427054
C        -2.38819326281198    1.71101192913114    4.14419109984491
C        -1.08721006811897    1.08137576272690    3.78859492050116
C        -0.71288857932607   -0.24657308246485    4.17028724822131
C         0.67353632792208   -0.43328235787106    3.82199454531249
C         1.55780062715130   -1.52745672215947    4.31872027007812
C         1.12233087835667    0.74298374773346    3.15485042061318
C         0.02582023716336    1.69439940405363    3.12511617051635
C         0.21920978782732    3.11974069353592    2.84054691105458
C        -0.20749605794273    4.07837747279430    3.76000437223314
C         0.10151122804517    5.41071344770055    3.58090097996285
C         0.85560911270085    5.83243657802038    2.48716817439107
C         1.24554011086573    7.24230167033859    2.34839083393567
C         2.51728720985253    7.58127418080912    1.88743043746034
C         2.89848766300809    8.90607866731036    1.77856134216792
C         2.01483810834356    9.91612106922967    2.12379853896831
C         0.74728328096252    9.59159360456548    2.57986047334510
C         0.36552428768778    8.26684826753139    2.69476007773263
C         1.25850167061812    4.87594260273103    1.55685132861319
C         0.94309496778821    3.54298473202128    1.72644999358294
C         2.53329617532179    1.02912934110452    2.76987655573426
C        -1.52560452837824   -1.15300529928871    5.03349313804194
H        -2.41239279934321    1.88849980919352    5.22032680685263
H        -3.22154956056235    1.05352750278268    3.90355531258273
H        -2.51775547757139    2.65636935903434    3.62711243722967
H         2.14242143720245   -1.14225091201127    5.15574376937633
H         2.25422368147059   -1.86211539218752    3.55427682059529
H         0.97966226886244   -2.37218565011687    4.68087140680819
H        -0.73676940737438    3.77751727147208    4.64982762485457
H        -0.20960734536741    6.13147929312516    4.32221298314342
H         3.22023488717091    6.80102461010192    1.63481967545294
H         3.88966022158475    9.15302983951828    1.42677924866323
H         2.31236754954952   10.95076265718263    2.03841978540771
H         0.05075941414684   10.37409144319507    2.84351395362662
H        -0.63582603755522    8.02734465257327    3.02050474138725
H         1.81731284826569    5.18381356084433    0.68587045347935
H         1.24943232244317    2.82053791193431    0.98653341636532
H         2.68184974084313    0.90513822295605    1.69779349388386
H         2.77853581904337    2.05990048635594    3.01915831145272
H         3.21362372050744    0.35994258971623    3.28955401639787
H        -2.58826903114958   -0.99521751520799    4.87361564792450
H        -1.29409617526093   -2.19776569487363    4.84439630563565
H        -1.30587149820066   -0.94187099944687    6.08078589332949
C         5.22481587157098   -5.32347845857594    1.72872156921256
C         4.74487191424449   -4.93650545967892    0.33333853157100
C         3.78369517899431   -3.74633593671496    0.32800547231179
C         2.46147956672481   -4.03543117801542    1.03770855702717
C         1.46710318073181   -2.89409688658401    0.83533565904262
C         0.16431782628937   -3.16315006277138    1.59741872587449
N        -0.80282474422196   -2.11331849273438    1.40288320302792
C        -1.91640810000206   -2.39315064226525    0.83067652274365
C        -2.86968898910047   -1.33716904972419    0.61754037862327
C        -4.14857027601791   -1.57876303566722    0.12719026614038
C        -5.01628964411417   -0.51058119217629   -0.02415919236294
C        -4.54100237608834    0.75981446690554    0.24493846951134
C        -3.22615729709319    0.94692772317142    0.68389752663981
C        -2.74019963669322    2.33549990611850    0.75146103092427
C        -3.46779016012500    3.31567495216603    1.42906067040353
C        -3.09562868794242    4.64110033791240    1.33917915833453
C        -2.02449718230756    5.01584358736798    0.53010028450715
C        -1.71826671501157    6.46077081720403    0.38136864180927
O        -2.27289530086522    7.33789558737208    1.00637858508170
O        -0.79056365783428    6.68829490417797   -0.55027345505121
C        -0.45452166561954    8.04418481348366   -0.82212351806600
C        -1.30332749453785    4.04072563157996   -0.15144024589644
C        -1.64976771126304    2.70882175527914   -0.03014233515807
N        -2.42274110688900   -0.09511312582685    0.93029130525722
H         5.98371454163050   -6.10018737950756    1.66118323803341
H         5.66233662565940   -4.46461116735890    2.23396389348835
H         4.40669367494150   -5.70578517602795    2.33384004803790
H         5.61288626927703   -4.68093424065924   -0.27919996434588
H         4.25919265845986   -5.79670384248713   -0.13314851103550
H         4.27186144124605   -2.88959699667298    0.79794221811015
H         3.57522481421078   -3.47556808616288   -0.71001353137378
H         2.64259436345575   -4.17977750574495    2.10389448727994
H         2.04041464361848   -4.96206347121842    0.64174725590557
H         1.24379852800487   -2.78373981917756   -0.22662211892820
H         1.90509435425587   -1.95441407910540    1.17344732467239
H         0.38674953627154   -3.22970758703800    2.66401785292937
H        -0.25382600924559   -4.11963417450664    1.26657848795860
H        -2.15538143153325   -3.39954419124517    0.50031844532559
H        -4.44723749543309   -2.58562448517814   -0.11363576786393
H        -6.02743671276535   -0.66084614738224   -0.36758917611692
H        -5.16173160807734    1.62787047433961    0.09108436091592
H        -4.32483737106692    3.03787101387269    2.02397600738941
H        -3.64142783445268    5.40987791717879    1.86446307120209
H         0.08416547754821    8.03798541545360   -1.76576701921371
H         0.17505817701463    8.44049466026927   -0.02342175313267
H        -1.35900457138121    8.65055969614707   -0.89484546015025
H        -0.48685095369414    4.33242254494066   -0.79059714940259
H        -1.09811783440536    1.95903822399683   -0.57302000020605
Cl        0.54458063565796    0.14863167796022   -0.13882223218314
