66
 energy: -114.113468163015 gnorm: 0.000237986262 xtb: 6.4.1 (afa7bdf)
Ir       -0.60318632957458   -0.97124380877805    1.42000708899045
C        -2.09593575896852    0.81522826849159    3.95539064672652
C        -0.87614708449814    0.18117987386833    3.38640675669009
C        -0.46571749753738   -1.17015790277794    3.64171504011273
C        -1.16012315332690   -2.11340727981418    4.56245475500213
C         0.86105515943238   -1.33994208589920    3.10467514998009
C         1.77714808301746   -2.47404922338721    3.40201030765200
C         1.21995524365577   -0.14617833176802    2.42068700296647
C         2.57070770128820    0.16194469835688    1.87770710672356
C         0.13216043686027    0.80652581262555    2.59014424642635
C         0.24120786560709    2.24574509507789    2.29495069659656
C         0.12417298528438    3.16230369931243    3.33885865695811
C         0.28214424416415    4.50863533435113    3.06972914109393
F         0.17506997285498    5.38713198014425    4.08677736184073
C         0.54519112057601    4.99033842966717    1.79966674002954
C         0.65031963037638    4.05535224676633    0.78456462904953
F         0.90057858394789    4.48802842201847   -0.46697929993692
C         0.50669630566772    2.69843826574283    1.00402125237020
H        -2.27514070851442    1.79351605495513    3.52027282117300
H        -1.96076959911071    0.92827303839594    5.03159315009064
H        -2.97348591929043    0.19126599499060    3.80215095858082
H        -0.88331551760161   -3.14289056208335    4.35434293714435
H        -0.86922242899265   -1.88688395591833    5.58899596679918
H        -2.23909241739560   -2.01000385887412    4.48874779241993
H         2.28173573301282   -2.26654625581108    4.34663853480424
H         1.23937128144242   -3.41187042368583    3.50872929284857
H         2.53600464911380   -2.58134094687006    2.63264105442243
H         2.95399579483064   -0.66370651926311    1.28331960435938
H         2.55242521181967    1.05670191211785    1.26339192216317
H         3.25679351433487    0.32399793997659    2.70978716939294
H        -0.05831005695727    2.84135204356302    4.35106911024082
H         0.66456686374929    6.04393524567865    1.60982464086917
H         0.57691437198119    2.01014979648822    0.17547799636347
O         4.52787467856404   -6.15826261842573    0.21972715079130
N         3.49868467534394   -6.48805047163536    0.77828879114725
O         3.33972570565331   -7.55410067996535    1.34240993207378
C         2.40161045157111   -5.55980563098949    0.77216699934846
C         2.56680071676504   -4.30733657201484    0.18557637500399
C         1.51612892311741   -3.41348567638750    0.18689091358679
C         0.29387477361991   -3.77903351481906    0.75590294254641
N        -0.77002569034061   -2.86839690730653    0.73817445393844
C        -1.93111164567294   -3.23769651869018    0.29721942413008
C        -2.95715874783120   -2.24326749988262    0.25675198706671
C        -4.25712163114418   -2.51032517464515   -0.21386418561896
C        -5.16556765467603   -1.49103452173212   -0.26943948907803
C        -4.76125858286975   -0.18508826050981    0.07876779898522
C        -5.62949682363039    0.92016023446831   -0.02047288946727
C        -5.18923054281684    2.18321883564591    0.27053420311625
C        -3.85525491011776    2.39023568093751    0.65804584200208
C        -2.99180302474718    1.33613805771497    0.78843703162607
C        -3.41932392495774    0.02109106584101    0.52459044349067
N        -2.56728276839944   -1.02413287214769    0.66602948354245
C         0.13551809606484   -5.03974930806451    1.33884090440823
C         1.19105969779284   -5.92827355730105    1.35224027085533
H         3.51615172948161   -4.05489505435420   -0.26070541990505
H         1.61205277917373   -2.44208622391176   -0.27409879605363
H        -2.10277590578752   -4.23481530240855   -0.09205927211501
H        -4.51040374207645   -3.51371211931675   -0.51394584566509
H        -6.17916423365113   -1.66203837215026   -0.59770376709829
H        -6.64403975861136    0.75025800018105   -0.34624408323903
H        -5.85626315223187    3.02669001870761    0.18760025897967
H        -3.50899536299745    3.39367489900470    0.85000460869298
H        -1.95907185647847    1.50255867745910    1.04778687949205
H        -0.80551661919725   -5.30838555422044    1.79297877773703
H         1.09460731497180   -6.90566995740650    1.79931601710408
Cl        0.02119075489758   -0.33464209938674   -0.78576197235887
