68
 energy: -107.767071678258 gnorm: 0.000256661132 xtb: 6.4.1 (afa7bdf)
Ir       -0.72188844323345   -0.60397159808133    1.39434971142655
C        -1.70219364099183    1.53197952202102    4.01131161676402
C        -0.65384003437596    0.78617420433163    3.26501663577564
C        -0.37971819568690   -0.60464568947222    3.58648195202273
C        -1.06485625655808   -1.37536953649568    4.66271296235920
C         0.84745379102807   -0.97674182569104    2.95795422116345
C         1.66386369096050   -2.17324213223203    3.29393353211177
C         1.23674325323997    0.11277780750710    2.10834188120430
C         2.53348287079574    0.20770448071652    1.38262846045209
C         0.33641592714231    1.23867077166234    2.35240566521670
C         0.72829316623859    2.63112885966851    1.91958010628066
C         0.38370020007492    2.96070520490775    0.45977172553996
C         1.06831561442755    4.26073967967557    0.04810467477565
C         0.64339123336383    5.40975078922023    0.95855069131402
C         0.91363881827342    5.06604697354709    2.42094088709482
C         0.20451870586289    3.76729292309413    2.80172955399655
H        -2.61079812435043    0.94070510804810    4.09538167058579
H        -1.94657466813044    2.48453950199746    3.56275811727712
H        -1.33289416983180    1.70619166087678    5.02293045597377
H        -0.87922858840315   -2.44036519390985    4.55857740484445
H        -0.67762322077203   -1.05597982252488    5.63084672816726
H        -2.13690271706116   -1.20034192118268    4.65856167290801
H         1.04724062695656   -3.04803085918765    3.48021782026472
H         2.37625946365616   -2.40662576442122    2.50967189846039
H         2.21925087897514   -1.95261302838574    4.20643145716561
H         2.91674059743976   -0.77679697210297    1.13181061153752
H         2.43331061107022    0.78689569946206    0.46907857151861
H         3.26227516637000    0.70494182101234    2.02470736412739
H         1.82363578606225    2.64891677856160    1.99535642507489
H        -0.69577215964926    3.07336819412151    0.36031347888397
H         0.69608335314588    2.15366396706773   -0.20108212097015
H         0.81326358262603    4.49567144778847   -0.98711781117138
H         2.15301870251350    4.13786259595974    0.10183210830968
H        -0.42312162998635    5.60155405139598    0.82393943501602
H         1.18158529889500    6.31918922196633    0.68370629116369
H         0.55998414917755    5.87658455859442    3.06095259857102
H         1.98956422726871    4.96309508632395    2.58024901754323
H        -0.86353674839708    3.90731477739391    2.63741427431945
H         0.38224743411669    3.54584397288324    3.85429423057863
C         4.64732862863055   -4.21687613772279   -0.80552519769005
O         3.50335916106960   -3.39418827971439   -0.64737649918159
C         2.43114667299864   -3.87392796119307    0.00394457235003
C         2.35293106982611   -5.13959864847801    0.58806423213676
C         1.19196111109957   -5.51688045854563    1.24647260674180
Cl        1.10777127104812   -7.09177189137141    1.97032779342912
C         0.09911733064445   -4.67488688469732    1.33942879105062
C         0.18475600978528   -3.40795460354392    0.75599206980831
N        -0.90278455196842   -2.52431618460782    0.81157391507814
C        -2.08050786212132   -2.96801904229726    0.50535928161943
C        -3.15585316589478   -2.03009876822247    0.46711967909417
N        -2.84790969760114   -0.76863643375343    0.85452974386644
C        -3.76139586664710    0.17849656878225    0.66545670163209
Br       -3.28902398544216    1.94126242051836    1.06493828541927
C        -5.03759633335364   -0.06411843301554    0.17351472096562
C        -5.38998145782467   -1.35838341172724   -0.17768959950349
C        -4.42550278348425   -2.33788324379164   -0.04009149079592
F        -4.68179595397981   -3.59759842483978   -0.40398692827352
C         1.33829475695010   -3.00648385466948    0.10007587035777
H         4.40919293039500   -5.12219206241523   -1.36864768799081
H         5.07971715606573   -4.48292892581814    0.16219425897546
H         5.35767993774579   -3.61589146829972   -1.36887124864254
H         3.17513584343704   -5.83282260200868    0.53859257247210
H        -0.78488006112112   -4.98236539870029    1.87265061877545
H        -2.24616981338207   -3.99348413738034    0.19519871975137
H        -5.73781981062919    0.74910647289766    0.06890224590590
H        -6.36809510373220   -1.59776327662202   -0.56357124422691
H         1.38359359139482   -2.04086922139641   -0.37735495574266
Cl       -0.59132257620554   -0.06075102349558   -0.92925880504129
