65
 energy: -120.712477868457 gnorm: 0.000253925961 xtb: 6.4.1 (afa7bdf)
Ir       -0.60734190480721   -1.06398948732160    1.40862549001434
C        -2.16251647172877    0.59685928649858    3.93839388275082
C        -0.90509426137642    0.04963417850117    3.36088112339992
C        -0.36689671992800   -1.25024069111940    3.62664796408058
C        -0.94258558598192   -2.24295484096907    4.57497755995619
C         0.94729581146430   -1.31973917104140    3.03326009012178
C         1.94818881181347   -2.38776401076709    3.30603900490689
C         1.18419720176954   -0.10326774436845    2.33419723818755
C         2.47136130833877    0.33288273777851    1.73111165085609
C         0.01445957425324    0.74568596306795    2.51194622982926
C        -0.02787793827715    2.18347855778483    2.18869549469302
C        -0.13177868568485    3.10526824679885    3.22889805402941
C        -0.11726688062693    4.45537762159350    2.93199698644154
F        -0.21256545443638    5.34035378385069    3.94428957244905
C        -0.00908212150491    4.93305395033638    1.63803835276388
C         0.08506472997882    3.99104071839048    0.62826621469239
F         0.18332509636393    4.41970279646976   -0.64599006149564
C         0.07668212266750    2.63099054765159    0.87456956543348
H        -2.41770396646084    1.54994632334930    3.48414846067981
H        -2.01900798538007    0.75232412715545    5.00803319931971
H        -2.99016086553347   -0.09893254962368    3.81994634334062
H        -0.62712864255857   -3.25199745145059    4.32558024569157
H        -0.58791887656885   -2.01903898967169    5.58172693057954
H        -2.02765560106191   -2.19723115400308    4.58143379510327
H         2.43515978005433   -2.16943500909666    4.25736923727477
H         1.47931067546127   -3.36480634513133    3.38478674743159
H         2.71200310740960   -2.42409317692087    2.53565228658091
H         3.03885070955289   -0.51447360310115    1.35708540570139
H         2.30566641168656    1.03435027812973    0.91862508840960
H         3.06684207531312    0.83285824518348    2.49627591701394
H        -0.19637381733652    2.78793127296754    4.25672667298562
H         0.00336436259062    5.98915642616521    1.42646207453763
H         0.13672083533750    1.93305654834013    0.05370837902682
C        -5.07076723163201    2.28676753371685    0.47027716007162
O        -5.42211643158009    1.02387484088237   -0.07794163067072
C        -4.58710321689820    0.00269442703739    0.00345456807383
C        -3.33459155849638    0.01766597224644    0.62695265040790
N        -2.54276158783092   -1.04803792343063    0.67567835542143
C        -2.93617738904535   -2.20414313910258    0.09145135279861
C        -1.96137018793301   -3.24773525585621    0.14255533879128
N        -0.82774781160884   -2.96438531418306    0.70161125272864
C         0.18806863808400   -3.93097631001532    0.75191469327443
C        -0.07024895489091   -5.20839239655310    1.24822434802689
C         0.93885526518234   -6.15308158094926    1.28074251327366
C         2.20369122180487   -5.82270013090097    0.80928235577237
C         3.30178242667754   -6.84923923683168    0.79442397146899
F         4.49601746438935   -6.33185265714448    1.13297296628175
F         3.08003574745628   -7.87365666840997    1.63182323592812
F         3.46740449370597   -7.39390565132920   -0.42992644689045
C         2.46632819312620   -4.55041287509387    0.31040054285498
C         1.46295268657607   -3.60169214059878    0.29302283073843
C        -4.17879196665835   -2.31511081264636   -0.54174112489084
C        -5.00399687033147   -1.21670575560874   -0.58231784374463
Br       -6.70730822581372   -1.27823841974477   -1.41903330612723
H        -4.16819231690757    2.67934963976982   -0.00140211313237
H        -5.91307160264944    2.93803792862310    0.24737256927777
H        -4.93747495804228    2.21730633816014    1.55123574174291
H        -2.95865820165605    0.91812721394836    1.08791591467342
H        -2.14833214162097   -4.21223525641969   -0.31491653639354
H        -1.05137823030110   -5.45418059902024    1.62312279169132
H         0.74666259105176   -7.14146222750939    1.66811187313304
H         3.45149576095718   -4.31145254377055   -0.05875261191551
H         1.64155903410878   -2.61536546366039   -0.10689018295933
H        -4.47507302851878   -3.24601240645207   -0.99773619655764
Cl       -0.02240544553350   -0.48615351459726   -0.82786422993914
