77
 energy: -112.546671291273 gnorm: 0.000655804305 xtb: 6.4.1 (afa7bdf)
Ir       -0.39850459636699   -0.57872021534635    1.99632762182766
C        -2.60567150451793    1.14666341168383    4.00233722473699
C        -1.25552091781922    0.55883220693189    3.76563374863216
C        -0.92451117823225   -0.79263782443683    4.14706822750992
C        -1.85288999646627   -1.73265135002779    4.84018951309147
C         0.50413127602843   -0.94407734095500    4.06054138886653
C         1.26796085740209   -2.07763621226561    4.65515612962591
C         1.03222289690604    0.24883014327809    3.49825590041289
C         2.47728660986724    0.59874942597548    3.36135386187023
C        -0.06539311048285    1.19381288695779    3.31500834301825
C         0.16729055183731    2.64433310591147    2.98973527317363
C        -0.70591844167688    3.21217665134056    1.86580487640541
C        -0.29173214912788    4.65177832935175    1.57292146837876
C        -0.42988010088935    5.51464664357215    2.82516058692592
C         0.40868355527079    4.94241831876101    3.96509252290117
C         0.00904366495740    3.49883029820945    4.25808121795889
H        -3.39266216294425    0.46307004318224    3.69114737477957
H        -2.73725955320900    2.09469156945105    3.49357959585135
H        -2.72133958805905    1.31556171823326    5.07404250995623
H        -1.53051001015974   -2.76312986032534    4.72510399961363
H        -1.86829799609910   -1.49959321243455    5.90537857775581
H        -2.86587176234240   -1.63858427893877    4.46004214921965
H         1.42252247080258   -1.86608648992837    5.71402131954176
H         0.71586629073542   -3.01006769488237    4.58231850563711
H         2.24187747245417   -2.20099784600835    4.19323004770940
H         3.11009467553767   -0.26022449700902    3.55994591503986
H         2.69514107014569    0.96667535460147    2.36068545748173
H         2.73006750547346    1.38309980062261    4.07471106453074
H         1.20395286723243    2.73767109239882    2.65266310040614
H        -1.75883936400761    3.20749202820045    2.14739785786945
H        -0.58286522499462    2.60073050675798    0.97109958389590
H        -0.91126463638138    5.05788865550383    0.77057932913089
H         0.74532321912134    4.67148211422840    1.22994306457557
H        -1.47895795603380    5.55194629115801    3.12859709932594
H        -0.11133524462210    6.53658400957634    2.60938771236967
H         0.27792725251542    5.54890434506679    4.86371752817984
H         1.46524231473421    4.98122135414707    3.68936926488913
H        -1.02711786663982    3.47171564447079    4.59631283015263
H         0.63456289655641    3.09570828160698    5.05685363880899
C         5.61115591291356   -2.55018000337311   -1.95995215502588
O         4.86023467802353   -2.98204080348090   -0.82549111020721
C         3.58049111326514   -3.29385689668892   -1.01773009860195
O         3.02186169278298   -3.25263416173306   -2.08666796159468
C         2.92190661684918   -3.67384589418593    0.28918182775859
C         2.39748565082661   -2.47469802525377    1.11027791277677
C         1.04903817293132   -3.20499728868595    1.27133441661524
N        -0.12454260584064   -2.39641815739050    1.08587298712830
C        -1.03444555739863   -2.74332795931034    0.24028456353377
C        -2.13306873835760   -1.84727645198683    0.04697941663669
C        -3.16538536212682   -2.04069714728792   -0.87618071894665
C        -4.13750816368352   -1.07817928022035   -1.01848723899396
C        -4.06456163233716    0.08650738971130   -0.23671577093514
C        -5.04093832831765    1.13866972282507   -0.32823970373164
C        -6.17226215599070    1.27577868163229   -1.10657189551269
C        -6.73968133044107    2.51802146533128   -0.76565885196249
C        -5.92496186634624    3.05281588386159    0.19194106878758
O        -4.90480013932730    2.23385927892614    0.46176535900182
C        -2.99780751084662    0.20342180243915    0.66351671904647
N        -2.07394861458354   -0.73009651201851    0.81351106859829
C         1.48428788801070   -4.20060754030312    0.17650415983866
H         5.83932174602143   -3.40182468811275   -2.60272210338190
H         5.04119094681326   -1.81590483982527   -2.53128685909596
H         6.52507226693931   -2.11289290362255   -1.56764452910538
H         3.59911921371092   -4.30776300380005    0.85909456689512
H         2.29136982780316   -1.57336487809546    0.51161259174064
H         2.94709601766224   -2.24803279863198    2.01658901524311
H         0.96970704889035   -3.68743824901427    2.24914349175234
H        -0.97710430126682   -3.66323815080043   -0.32833327460879
H        -3.17992516973022   -2.93888467419296   -1.47199963702430
H        -4.93965864877750   -1.20871965197398   -1.72553598473870
H        -6.55184068512797    0.58246507026317   -1.82811044014963
H        -7.62742105411161    2.95543823005359   -1.17258687099986
H        -5.97330368707262    3.97696580381655    0.73330742804579
H        -2.90817528786668    1.09360706324787    1.26666086281797
H         1.33234483628849   -5.25464692227463    0.39036580760956
H         1.09068414410691   -3.95821839771581   -0.80909654556617
Cl        0.61928897936021    0.35952947935066    0.03903905427595
