55
 energy: -93.801419049949 gnorm: 0.000359316458 xtb: 6.4.1 (afa7bdf)
Ir       -0.97951149696934   -1.30317851068767    1.43454342838327
C        -2.60911834783753    0.73831857718154    3.66197878610352
C        -1.37762731365335    0.02877905532583    3.21559374232707
C        -0.98469924675967   -1.29241715404975    3.65214567437932
C        -1.73628581435425   -2.12934997521580    4.62897752596823
C         0.37695737204545   -1.50783187513877    3.23790676996387
C         1.24139423582082   -2.63338357167658    3.68258243254286
C         0.77685983654025   -0.39323054400708    2.44701457190538
C         2.14519214313174   -0.10569991002518    1.93450382945156
C        -0.31189457842848    0.57121298726308    2.44825755925509
C        -0.19743945773317    1.95760061202982    1.91654936234446
H        -2.42877479915174    1.14544000730507    4.65785328718571
H        -3.45838485844693    0.06327932211933    3.72975234348498
H        -2.85493410342326    1.56762015000133    3.00449778132384
H        -2.80910243655487   -2.04338034032352    4.48076156580119
H        -1.45080714654645   -3.17470197418743    4.55466147082120
H        -1.50697520915861   -1.78865079670615    5.63939299387489
H         0.67729415791499   -3.55662247479934    3.78786652335750
H         2.06538516210620   -2.80129778477744    2.99498986127157
H         1.65963950563791   -2.38284901377855    4.65799206131515
H         2.09950749856792    0.40348153881448    0.97544284814962
H         2.72643825674221   -1.01465035628821    1.81711796497687
H         2.66075633983669    0.54668633343268    2.63987486003164
H        -1.16321858651586    2.45172564490681    1.87160604246185
H         0.24190535902561    1.95625888601871    0.92143137892902
H         0.45771207114454    2.53461889655718    2.56952560078406
O         1.81319425889723   -2.43275567223835   -0.24855481100612
C         1.56444212243886   -3.58508339345953    0.35682630725301
C         2.65536018153464   -4.43904748266158    0.57066967570650
C         2.51001868087112   -5.66978746655224    1.16828712971471
C         1.24314343296416   -6.08858809607232    1.56791702944835
C         1.02956930562198   -7.41306728456496    2.23715609190135
F         0.08536964698573   -8.15452155485796    1.62068048886456
F         2.13063482335457   -8.17103569086131    2.29605626904333
F         0.59659900421992   -7.27257167586461    3.51078436459419
C         0.14365247336124   -5.26947151066187    1.37142351372757
C         0.28841977552385   -4.01475069463551    0.78363162751805
N        -0.84529211948348   -3.19606634986805    0.65572927217408
C        -1.91043337328581   -3.66196667175331    0.08564622122819
C        -3.05951075635977   -2.80581140073289    0.04677506029132
C        -4.24527251152473   -3.11518171605031   -0.62055680341335
C        -5.27295488418074   -2.18974375088849   -0.62514965733255
C        -5.08214564562817   -0.97723913516321    0.02809408743209
C        -3.87828327543700   -0.73762359414761    0.66966121378140
N        -2.89146026106776   -1.62743269703565    0.69532661078649
H         1.02155930989505   -1.88779326943540   -0.46991735862806
H         3.62316159469938   -4.09739551346782    0.24119673660351
H         3.36566701491546   -6.30710424429871    1.32283712086775
H        -0.83275873723046   -5.58963877187850    1.70309006791761
H        -1.92863511369815   -4.64289410704482   -0.37543903282781
H        -4.33836621442793   -4.06162114777342   -1.12860167229368
H        -6.20082016316387   -2.40209012760657   -1.13224275612867
H        -5.85433083871366   -0.22535478627965    0.04308343170895
H        -3.70064011968644    0.19775353453546    1.17833999853419
Cl       -0.51950515440932   -0.53897045798413   -0.80476249385246
