72
 energy: -96.365139890872 gnorm: 0.000553901305 xtb: 6.4.1 (afa7bdf)
Ir       -0.23741633575851    0.29152437929346    1.98955465403540
C        -2.34314205512617    2.58127024550726    3.36476742759923
C        -1.01169380929229    1.90056924265310    3.32873981277333
C        -0.68620727260805    0.74737976477667    4.13515126164910
C        -1.59976886775983    0.05713254079860    5.08917016487491
C         0.71669202674040    0.50719788065981    4.03420844532718
C         1.47872785974528   -0.41594876647273    4.92298374472653
C         1.25898927652147    1.47226635503058    3.11301951866099
C         2.71631463053183    1.67346339900115    2.84980279353292
C         0.20149801730396    2.38728473762919    2.74657044605342
C         0.47333451228091    3.68850250993029    2.05304546081131
C        -0.65161436637849    4.26492709085418    1.19255637075564
C        -0.15326009246457    5.52316109643467    0.48549198864275
C         0.27759094247111    6.57113214719471    1.50902698180538
C         1.35199337965671    6.00770090448286    2.43540965559444
C         0.87029274905911    4.73039295326581    3.11776270778205
H        -3.05831303444096    1.99366380887485    3.93387847226669
H        -2.73519465770859    2.74911519553009    2.36458938059102
H        -2.24547264868904    3.54850674155563    3.85582061300778
H        -1.21986275267386   -0.92655820017658    5.34868693310251
H        -1.66632796312446    0.64906292915770    6.00316054082577
H        -2.60328831527866   -0.05202568742130    4.68652212007519
H         1.07482511779579   -1.42548465723399    4.89645142183115
H         2.53139882643332   -0.44178818344406    4.66159894552127
H         1.39387844195892   -0.05374594904288    5.94803193496231
H         3.25224262892293    0.72908721132417    2.88530368442200
H         2.88090010773339    2.12910348567143    1.87708397543349
H         3.13867992680701    2.33229419574681    3.60860910444121
H         1.33549816522695    3.54023073327719    1.39467624431661
H        -1.50506606706309    4.53868347362150    1.81003383331328
H        -0.96873134324302    3.52609867560598    0.45701786288700
H        -0.94677189438014    5.92736720379146   -0.14640460422297
H         0.69006993094527    5.27422476094536   -0.16289832830640
H        -0.58871500199503    6.87771998695850    2.10034053748834
H         0.65850272481973    7.45761495662239    0.99784470354152
H         1.61394261821864    6.74922153657627    3.19292517137457
H         2.25201705782963    5.79325137144912    1.85474923822146
H         0.00466855608602    4.95460897067696    3.74328169070022
H         1.65809002169591    4.33697219311327    3.76122598262063
C         2.75668707807720   -4.57174611773292    3.13422973990834
C         2.21271012069158   -3.72858010615389    1.98446467297349
C         2.76877689851501   -2.30031686160876    1.97009299745821
C         4.29294539397186   -2.26928555765228    1.73631558384620
C         5.08880745111494   -1.98621155827183    3.00809374969296
C         2.07816870882931   -1.46165812846207    0.86798477191741
N         0.66192175086089   -1.31326348126229    1.07978586912470
C        -0.13912118406231   -2.12416918301096    0.47676751980671
C        -1.55056584576412   -1.93450177740546    0.64800555535500
C        -2.53026115915417   -2.72235831073929    0.03837904422332
C        -3.86153376511573   -2.41736189432376    0.23076144543595
C        -4.17125614658375   -1.31863935124257    1.03093194517787
Br       -5.98315129639724   -0.82987780472226    1.35626211021696
C        -3.15290261060095   -0.57164776857506    1.60565686219651
N        -1.87364851751599   -0.87353631345387    1.42628954863918
H         3.82794381243445   -4.72266274974859    3.03975691416330
H         2.28032004798858   -5.54924831563999    3.13427222765484
H         2.55618585666200   -4.09519209173466    4.09069605946533
H         2.45083005047761   -4.21982581901864    1.03820384904454
H         1.12508371232640   -3.68837900044220    2.07980388476230
H         2.54498736256621   -1.83967888836412    2.93365398038828
H         4.54146349555977   -1.50231900724606    1.00003997408493
H         4.61431078930559   -3.22403007861020    1.31806979649940
H         6.15476489675299   -2.03896219584155    2.79830802402202
H         4.86009630045210   -2.70882054169811    3.78623450823863
H         4.87367445405423   -0.98971156046901    3.38768773540103
H         2.51305325935976   -0.46108446409744    0.85837992097330
H         2.26365612027805   -1.93764185956346   -0.10038070430056
H         0.22536918208793   -2.90037503116003   -0.18764124602523
H        -2.23844353282772   -3.55463451452956   -0.58172759492735
H        -4.64301285950726   -3.00293878080733   -0.22678441939494
H        -3.38469182901281    0.28839182943334    2.21526040810009
Cl       -0.34314903662298    1.06027404995007   -0.26137962717076
