71
 energy: -110.802320696332 gnorm: 0.000401383232 xtb: 6.4.1 (afa7bdf)
Ir       -0.90710648478893   -1.10183597829291    1.65316657476864
C        -2.67348118460948    0.92792431922258    3.75149603485104
C        -1.41054222829117    0.20034054615121    3.44441830749413
C        -1.10170957243926   -1.13220481318629    3.88765015602904
C        -1.96744302608991   -1.96927127623037    4.76738888321697
C         0.29794006799643   -1.36322671476794    3.65383258740731
C         1.07676487187111   -2.43517437675532    4.33476210090764
C         0.80222791481470   -0.27593685814438    2.89127921152118
C         2.23369764962032   -0.01125609163425    2.56513245056823
C        -0.26275928568202    0.71977095286758    2.78640774426895
C        -0.05172327892574    2.12674931451638    2.40771707528771
C        -0.31143891135989    3.11477302451384    3.35785163464232
C        -0.07159586984556    4.43700865013535    3.03794068357603
F        -0.32466545478931    5.38326319853054    3.96754035315648
C         0.41714152062809    4.82962141029815    1.80491565379558
C         0.66245785807036    3.82635961724929    0.88373335566928
F         1.13628987094433    4.17127689571911   -0.33157206223948
C         0.44250997251158    2.49010115118239    1.15799867383839
H        -2.74549232259164    1.84826746307278    3.17857890056041
H        -2.68129044820541    1.18257068924236    4.81203696683601
H        -3.54876347501886    0.31100481762089    3.55977886906066
H        -1.76124657949156   -3.02655902957662    4.62652623438005
H        -1.76376551935759   -1.72307778116951    5.81029318635833
H        -3.02011471334908   -1.78378814135708    4.57532398325761
H         1.09907042411883   -2.19963812564514    5.40019709510621
H         0.60809554391871   -3.41068411526512    4.22916835507234
H         2.10189322681156   -2.47902393369810    3.98096920015786
H         2.79777237088454   -0.93635189898745    2.49096945583371
H         2.32652991455703    0.53088525313811    1.62834181541875
H         2.67279967966845    0.60199178708779    3.35301718820194
H        -0.67143110786635    2.86600060217548    4.34250474992926
H         0.59921763838689    5.86572072687884    1.57375333358894
H         0.61898796790187    1.75087468612169    0.39272724689569
C        -2.16755630445868   -3.39230764534554    0.52282724020189
N        -0.97793871378056   -2.99434966889041    0.83356770150429
C         0.12644451469454   -3.85696158512843    0.43608758393010
C         1.46291026434854   -3.37817569232252    0.98847200200314
C         2.59767682059378   -4.28998431248431    0.52267146752569
C         2.66823733049822   -4.33157465869599   -0.99943102297517
C         1.33190106132898   -4.79602035592628   -1.56741515270641
C         0.20399299720060   -3.88113697279541   -1.10293795596313
C        -3.23293436714116   -2.44069764408958    0.57033572060354
C        -4.54346461593411   -2.68014016829530    0.14678780654367
C        -5.42535948342376   -1.62825930957144    0.06120790333516
C        -4.98300948608290   -0.33089030542432    0.37421937599648
C        -5.85927586297779    0.80153096868639    0.24459881435917
C        -5.67040136819253    2.15067210737951    0.47287896506463
C        -6.88950697602315    2.77954346529295    0.16268640636769
C        -7.73677260945239    1.78135355530721   -0.23218673400219
O        -7.12900298651041    0.59513523309115   -0.18538271335682
C        -3.66233425481667   -0.18056743657030    0.81780851878623
N        -2.83002144770327   -1.19952986862657    0.93752691750739
H        -2.35007150679438   -4.38703667650308    0.13064730108629
H        -0.07857394976747   -4.87280678227152    0.79803613711985
H         1.64142343456644   -2.36144460744645    0.63427657021298
H         1.42883157180843   -3.38087716105792    2.07321279587520
H         2.43585107855107   -5.29992352412687    0.90608020004996
H         3.54366611048679   -3.92786936247113    0.92711513991838
H         2.89909890489894   -3.33557772077581   -1.38230737114255
H         3.46416252493327   -5.00622853662977   -1.31861284154564
H         1.13344746398262   -5.82029626071305   -1.24363854007150
H         1.36737133156237   -4.79130443742123   -2.65795247497636
H         0.38492844966602   -2.86426405008722   -1.45314902161470
H        -0.74422260498864   -4.21891091292906   -1.52319841820372
H        -4.84158247312835   -3.68103337487956   -0.12003287736579
H        -6.44255004545531   -1.77829556736348   -0.26349539850682
H        -4.77810903134320    2.63309909160993    0.81324541132217
H        -7.11021024675330    3.82500452540963    0.22146453401732
H        -8.75836086368105    1.80044648971179   -0.55742199436400
H        -3.27799224081921    0.79625477567105    1.06527292155906
Cl       -0.27532344978474   -0.38753658432128   -0.52775291744653
