61
 energy: -98.572600846256 gnorm: 0.000411817647 xtb: 6.4.1 (afa7bdf)
Ir       -0.04033196113736   -0.60807215201367    1.98359863135252
C        -1.19252976988864    1.70605430311159    5.19255839103254
C        -0.46732866950025    0.46292966280882    4.85591960725724
C        -0.89154023935409   -0.54376095739428    3.92042082038642
C        -2.33644733459301   -0.89664216466715    3.64968574496560
C         0.18657587975176   -1.55314915839169    3.87620423010834
C        -0.07759485461824   -3.01114870737298    3.58742397603499
C         1.20826596247438   -1.09195720299581    4.78452850787808
C         2.51298145134124   -1.73944295198645    5.03650787172906
C         0.79353929710292    0.11374192424470    5.36433150664047
C         1.60185412117365    0.94296129969723    6.29726931648433
H        -1.36031304548155    1.75822813444735    6.26812811779695
H        -2.14876326467617    1.77130947386855    4.68426617303131
H        -0.58547894113885    2.56925900136367    4.92069036162965
H        -2.97089937673545   -0.01668120716266    3.70755725140600
H        -2.46674305776664   -1.35845096308309    2.66318706134394
H        -2.68415252013067   -1.61687704451371    4.39112365494134
H        -0.63858499302863   -3.14903211059526    2.65732155755631
H         0.85380765318321   -3.56500114120932    3.51344563654043
H        -0.67291183225612   -3.44139347669990    4.39376749836408
H         3.31896013271904   -1.03702636817197    4.82574704195998
H         2.65355402271926   -2.63069284774163    4.43364067606058
H         2.59151270873538   -2.00911473911177    6.09006286145504
H         0.96147890433902    1.51915067120315    6.95932392034443
H         2.21561189930437    1.64150385490090    5.72827510922621
H         2.26308669497292    0.32197054713957    6.89491302716957
C        -1.02022564684845    4.45532875540641   -4.59013469000446
O        -0.85027168273005    3.48743712895733   -3.55464824379269
C        -1.61546006033558    3.61120996251346   -2.47696611751044
O        -2.44109908020918    4.47856756764310   -2.31553565768306
C        -1.33356209235280    2.54783667579888   -1.46296740569633
C        -2.01161934857428    2.58051385160323   -0.24266990121455
C        -1.73951728983279    1.60691402448473    0.70125772209102
N        -0.86181837690439    0.63342558158795    0.49140975110753
C        -0.20425101651259    0.58535595135736   -0.68910973745674
C         0.71656872909949   -0.51350918701628   -0.80737974144588
N         0.89078380403242   -1.25336121667464    0.23434172110689
C         1.69662168416861   -2.39067204554117    0.19312497512718
C         1.66455768782329   -3.25948415128205   -0.90181884293874
C         2.45402314060731   -4.39277197475718   -0.86390077181662
Cl        2.42399425395500   -5.48890807085144   -2.21269168141734
C         3.26998198962200   -4.68473265188801    0.21914196328355
C         3.30093167363487   -3.81177222055145    1.30771836768317
O         4.03970158617698   -3.99302097323699    2.41762919291042
C         4.90478989222684   -5.11237420625755    2.50024406474740
C         2.50646940733494   -2.66380880995080    1.28630218883163
C        -0.41756744402620    1.52982599719170   -1.69141529180653
H        -0.17721637135960    4.32562667359456   -5.26286927075338
H        -1.96113340660301    4.27945397693622   -5.11386021859139
H        -1.03152049149683    5.46136511918864   -4.16842094424699
H        -2.73078335537638    3.36095524287768   -0.05278351548448
H        -2.23886765903099    1.60743363449492    1.65846830162947
H         1.23999413523300   -0.68967919166067   -1.74072921222543
H         1.01381156214422   -3.07550908578892   -1.74023442846443
H         3.86336367560772   -5.58280718869945    0.20072486225381
H         5.40914132304192   -5.01818212554371    3.45938228554817
H         4.34325518107667   -6.04954583003366    2.47293683186932
H         5.64568794423579   -5.10055274963365    1.69756263407570
H         2.55716077207805   -1.96636143215434    2.10752189817119
H         0.12614310513369    1.47340134436764   -2.62003884619861
Cl        1.59428790759767    0.98265494384966    2.33951420569393
