80
 energy: -115.392079123226 gnorm: 0.000719374778 xtb: 6.4.1 (afa7bdf)
Ir       -0.19036843090878    0.40488271260657    1.95845201489564
C        -1.85976345983621    2.75693916220038    4.14165226124308
C        -0.75683977823648    1.86033719292527    3.69475468958903
C        -0.55367662792723    0.51936485662447    4.19227816376604
C         0.80401084816665    0.15292957601052    3.96728095847153
C         1.48276886261486   -0.99058916206890    4.64494071973256
C         1.41830593954552    1.20666826595039    3.19564299605971
C         0.45545720284928    2.28970726797796    3.09137625614821
C         0.71087899853248    3.64020853608294    2.58612709004296
C         1.81214548930455    4.36455339724856    3.04161247936580
C         2.02605584059739    5.65871799842533    2.61151023158042
C         1.16075113317329    6.26325812136071    1.70168474737603
C         1.39481817685003    7.63837623996058    1.23807620708919
C         1.21851238116499    7.97409970454991   -0.10283143224987
C         1.43816250617892    9.26759060209811   -0.53936354182752
C         1.83025672119891   10.24821180009273    0.35732775989874
C         2.00534716790670    9.92611873060255    1.69341239939826
C         1.79323708522604    8.63151830272948    2.13066428829809
C         0.06495686119329    5.53325577777037    1.24258097370810
C        -0.16218525968685    4.24673127906948    1.68327212546172
C         2.87376278435439    1.31846714421168    2.88174160745487
C        -1.51376279475581   -0.23524541024375    5.04568020200987
H        -1.56282988807132    3.18980856866587    5.09901901781851
H        -2.78844098187728    2.21691414436862    4.29327203494657
H        -2.02913029900325    3.57126820911122    3.44478961171255
H         1.32509826435809   -0.89317905863403    5.71941468992962
H         2.55177324973338   -0.97719568506044    4.45788429908343
H         1.07217710786080   -1.95060452465649    4.33977452460143
H         2.48618031757412    3.92552756093911    3.75995640991699
H         2.88634643560849    6.20454482955172    2.96954843458137
H         0.92755207811034    7.21106023315386   -0.80992973584145
H         1.30466012370177    9.51262175036637   -1.58315855080831
H         1.99870396554032   11.25906888947322    0.01617936570772
H         2.30779147534661   10.68853025952473    2.39664775034126
H         1.91571900992640    8.39230120554167    3.17694145063657
H        -0.62418884318552    5.98835570291278    0.54674702846831
H        -1.00248360434689    3.68995797181488    1.29871881149457
H         3.29347893962558    0.35552777923456    2.60407635646828
H         3.03471306212395    2.02341917011282    2.07007718991257
H         3.41006475830005    1.67645300925822    3.76143464954240
H        -2.54107639434856   -0.03414941650765    4.75435091809615
H        -1.32865916944143   -1.30449828777230    4.99132922079290
H        -1.39155589250376    0.08026288114490    6.08275147431547
C         5.21029852827278   -2.36234506912172    2.12456542454752
C         4.15860792839140   -2.48232553465838    1.02501740006551
C         2.71334290251647   -2.37414751318781    1.55285677846500
C         2.02561880459573   -3.73950810725343    1.65918486171574
C         2.69782076129757   -4.67902154395285    2.65655402609866
C         1.92888479057138   -1.43002510701048    0.61149470822632
N         0.54246552273211   -1.22349908568015    0.95941405917938
C        -0.32775084653338   -2.01689599003483    0.44154886995163
C        -1.72250560763010   -1.71688297064013    0.55813734254686
C        -2.71869434840146   -2.51580973029723    0.00034402592734
C        -4.02508385635650   -2.07232303079835   -0.02587211815360
C        -4.30461104693444   -0.79341954119291    0.46106732810334
O        -5.48443280790822   -0.18156777745373    0.45198395035423
C        -6.61562241292629   -0.84698666366407   -0.09180951214111
C        -3.23395793129574   -0.05871153813415    1.01657131851355
Br       -3.63814713709721    1.68819217272329    1.57009703300339
N        -1.99917860434160   -0.51100025468760    1.11907069038665
H         5.16980706432194   -1.38157983182021    2.59234129893157
H         5.06961437253981   -3.11707000428113    2.89203181266010
H         6.20449153142436   -2.48934314665430    1.70235665039592
H         4.34393167042860   -1.69451992740623    0.29289983621313
H         4.28580150690774   -3.43311402989810    0.50691424586880
H         2.73634704208907   -1.92939344656805    2.54758424583723
H         0.99110693988819   -3.59263009229877    1.97853357973926
H         2.01237053330229   -4.21753331699967    0.67708828556986
H         2.11270495876931   -5.59019666718484    2.75724553213406
H         2.77441204386684   -4.21374693057004    3.63621700163208
H         3.69408837403648   -4.95715798543105    2.32554980984058
H         2.40777241291866   -0.44981396000104    0.60957175140032
H         1.98323208100230   -1.84232881202638   -0.40135113046520
H        -0.03000704467140   -2.85085911496955   -0.18602727811483
H        -2.45968576545730   -3.47507260165601   -0.41739831547130
H        -4.80268193771579   -2.68712513488728   -0.44802250802095
H        -6.83611456490933   -1.76007949250091    0.46465517810491
H        -7.43941916224578   -0.14513379121520    0.01525300252431
H        -6.46335073696818   -1.07587185655975   -1.14881706800259
Cl       -0.01563832079246    1.41362613942056   -0.18818526676874
