66
 energy: -121.215527893445 gnorm: 0.000558968721 xtb: 6.4.1 (afa7bdf)
Ir       -0.53491698591992   -1.16901998367318    1.66242106682105
C        -1.76377319890084    0.68856245133797    4.25265194771887
C        -0.59340908999185    0.09746692596915    3.54706184115529
C         0.00978706509050   -1.16098100730276    3.86501246986356
C        -0.39538311603232   -2.01135130076416    5.01886988296527
C         1.22234362682303   -1.28209241408697    3.08771106651081
C         2.29309339225973   -2.30215279573719    3.27476431976816
C         1.34121345747865   -0.12705477341457    2.26893615421248
C         2.53073461068217    0.24167181974227    1.45889267795840
C         0.19002833032701    0.72152445501174    2.52122982417903
C         0.07228788031638    2.12403192292793    2.08484911550273
C         0.11192441407861    3.13008788499902    3.04881301958494
C         0.05538821498609    4.44996198803338    2.64330689255685
F         0.10277607542522    5.41764959819609    3.58134144103634
C        -0.04730003016961    4.81736165676190    1.31338467335444
C        -0.09051525644444    3.79414426344200    0.38264827954082
F        -0.19782808931395    4.11538351602966   -0.92274672658489
C        -0.03324640305131    2.45972570241727    0.73834978375537
H        -2.09201924741260    1.60402618344313    3.76862607085525
H        -1.47396379363713    0.92540990415412    5.27685651868429
H        -2.59343674818171   -0.01296700220781    4.30353744493119
H         0.01097416923953   -3.01477402658579    4.94601406934501
H        -0.00689296116700   -1.55818413407094    5.93207252417761
H        -1.47672265372893   -2.05985273340287    5.11118152049187
H         3.10479480446030   -1.85534701500277    3.84948643942895
H         1.92979746296795   -3.16957804477316    3.81526240073793
H         2.70150315071403   -2.62396990305643    2.31920805860039
H         2.94832951894861   -0.62818654268007    0.95808133054893
H         2.28000617019604    0.99058966419445    0.71345109395278
H         3.29571810744236    0.65267135829235    2.11938358174308
H         0.21220418577727    2.89898253703518    4.09685743845751
H        -0.08866445626961    5.85189538249542    1.01577930778812
H        -0.08368694588761    1.69568109259092   -0.02180331194805
C        -7.07037308568400   -0.15567503752821   -0.86283240135640
O        -6.15287301341336   -1.24216063342483   -0.88843260889085
C        -4.99406446390292   -1.13990848769909   -0.25670423597753
C        -4.54854312846113   -0.02253992951912    0.46975420383047
C        -3.31356153265711   -0.05689493872098    1.08041406918171
N        -2.50415597786593   -1.11268550910668    1.03722249011108
C        -2.91120392811168   -2.19975244450452    0.32655337430060
C        -1.94551043472317   -3.26101145194532    0.29842156570163
N        -0.87019782939871   -3.09288144747572    0.99963607531756
C         0.16960625360057   -4.04497884046377    0.92226314048821
C         0.85782298243189   -4.21750055876271   -0.27298655585965
C         1.92225367623210   -5.10283401261115   -0.33273051776672
C         2.64777272483784   -5.30250514342993   -1.63052032383113
F         3.94758375086334   -5.60153567698329   -1.46403826298136
F         2.60635448432398   -4.22484949267113   -2.43150268997088
F         2.12551521705560   -6.31902761750127   -2.35500275838269
C         2.29329986475220   -5.83900870260503    0.79044970871608
C         1.59374296116531   -5.68762173394898    1.96842569393587
C         0.51996447388860   -4.80101792983189    2.05414042932641
O        -0.14842682749142   -4.71577078347696    3.20912066541160
C        -4.13422425430593   -2.24706546399492   -0.31856843488533
H        -6.63579828735032    0.73488510741395   -1.32075192130372
H        -7.38981143216839    0.06211295968150    0.15804078895069
H        -7.92456764245802   -0.48622060499623   -1.44890147449314
H        -5.14886968825941    0.86699034660653    0.55940331944648
H        -2.96155632533479    0.80191653120194    1.63142172966336
H        -2.10749165722609   -4.15442465485904   -0.29357080831382
H         0.58157016870350   -3.62548210680208   -1.13168128287848
H         3.12390629463187   -6.52433525934453    0.73410478435288
H         1.85640469926551   -6.25825186427230    2.84402743099183
H        -0.94079192079540   -4.16257394120520    3.13188083109705
H        -4.43234565205252   -3.11897597335396   -0.87727007715945
Cl       -0.05772213129987   -0.80172733428277   -0.64589216447277
