51
 energy: -77.447587574448 gnorm: 0.000337106513 xtb: 6.4.1 (afa7bdf)
Ir       -0.76327206751306   -1.07338119935785    1.15460435927428
C        -2.17347029458354    1.33030040932191    3.17511949597435
C        -1.02683921615949    0.44544631521134    2.82027059452531
C        -0.80267271513571   -0.87877378022519    3.36861655313797
C        -1.66623572381151   -1.54413171436153    4.38471095244976
C         0.52160574672280   -1.29041390486576    3.00220608574566
C         1.24121450445098   -2.47607451806248    3.54272095984518
C         1.06219776519202   -0.29417408258638    2.13003422830293
C         2.46954509714155   -0.20580335755220    1.64682276445896
C         0.11206740341399    0.80511046810648    2.06294470243423
C         0.40701020929268    2.12255012071211    1.43551673450565
H        -1.92754806641460    1.87111222232987    4.09004007734898
H        -3.07691111130265    0.75611742431666    3.36266730631679
H        -2.36663107243811    2.06505049121897    2.39734941049702
H        -2.71748629304462   -1.32962895568722    4.21389953475961
H        -1.52066990716111   -2.62060717610365    4.38060733197656
H        -1.40192938665110   -1.17075100363705    5.37479253646850
H         0.56128518782356   -3.30116380260738    3.73547533554803
H         2.01890226151325   -2.81310450382060    2.86350736965008
H         1.70982985907907   -2.19667411066133    4.48686192806220
H         2.50879378757821    0.23885005734456    0.65567988446705
H         2.93962800949917   -1.18393493989936    1.61728020842896
H         3.03892648694998    0.43118012570329    2.32425751720725
H        -0.45763556763162    2.77862004530598    1.45854951699828
H         0.71914401678177    1.99441087269983    0.40049600327472
H         1.22459896012644    2.60048089702438    1.97515698204832
Br       -6.25923104018743    0.59082861121812   -0.14443627380090
C        -4.89731045379914   -0.73819875913289   -0.18784153410851
C        -5.10305196679034   -1.94971832512934   -0.84744977146587
C        -4.08166472345220   -2.87559623328547   -0.83542659271727
C        -2.89126930371662   -2.57540325465355   -0.16601190353856
C        -1.74446235310549   -3.42882632717525   -0.12217371244844
N        -0.67677702946616   -2.94709758470099    0.43468080984378
C         0.48521107938663   -3.72985338933899    0.51074375352802
C         0.44279630477212   -5.01021157534189    1.06196875517643
C         1.60138944236843   -5.76147856507952    1.13524960688208
C         2.79607521173781   -5.25457722513922    0.64653481259157
C         2.83400161062291   -3.98517048216367    0.08783753545162
C         1.68720099063032   -3.21563691843023    0.02678912900058
N        -2.71572024742163   -1.39242034255407    0.47653825869456
C        -3.69248487120063   -0.49636149103001    0.45679478943199
H        -6.03365545802143   -2.14760097745468   -1.35518382551688
H        -4.18522119380453   -3.82031935996909   -1.34474936831086
H        -1.75675539618137   -4.41450209872401   -0.57190646689691
H        -0.48747283986082   -5.39365210807341    1.45247646693181
H         1.57073424765366   -6.74693538158092    1.57323789465299
H         3.69570520904284   -5.84744732995973    0.69973109533866
H         3.76056537149828   -3.59432919819880   -0.30346031858719
H         1.69177427598024   -2.23557788064392   -0.42375777253849
H        -3.52112766894506    0.44169117666756    0.96278845420902
Cl       -0.37708707146431   -0.29975337999420   -1.06892119551036
