87
 energy: -128.672467899035 gnorm: 0.000649890006 xtb: 6.4.1 (afa7bdf)
Ir       -0.16848793675333    0.14403296101103    0.62889141459097
C        -1.19310716859536    2.80292997321636    2.06149014861345
C         0.07003364127093    1.96941711097560    1.96469380284937
C         0.28844836221355    0.67220207227330    2.61598560041322
C         1.76586321964359    0.58339688652887    2.84295435107363
C         2.46958375811212   -0.61007762463631    3.36278984539747
C         2.35208414574917    1.76363209713345    2.48003461461105
C         1.33972788496982    2.62246642110406    1.93472606554950
C         1.54969641068120    3.96470885055731    1.45581825438598
C         2.39183971247569    4.85472748426967    2.13565736285323
C         2.55875233119269    6.14598306348006    1.68567991852061
C         1.92017586305645    6.59101088665459    0.52589216002378
C         2.10722499720593    7.96469797872570    0.04472725707237
C         2.25968173789397    8.22793976670823   -1.31623397560886
C         2.43713167612819    9.52309644120486   -1.76604417892639
C         2.45324674568774   10.57727538327882   -0.86657737727795
C         2.29798092766669   10.32777496873316    0.48766128104697
C         2.13152682953999    9.03259385509589    0.94140564288589
C         1.09149143124185    5.69999150676622   -0.16097892782213
C         0.89409376703503    4.41948835979091    0.30368543243547
C         3.81837500758472    2.03082925522129    2.49826114731863
C        -0.58737988583374    0.11940088655432    3.70474554851147
H        -0.93008840916494    3.82467070548826    2.32702009235332
H        -1.84398486332149    2.40636119776984    2.83431937354200
H        -1.75100779578927    2.84410171840389    1.12853094944106
H         3.15514251347861   -0.32084381301105    4.15745289206002
H         3.06973499546544   -1.05483170669273    2.56835056249315
H         1.77522843322092   -1.35381925550556    3.73762411523723
H         2.87453868711560    4.53862800738102    3.04650204298327
H         3.20879978273980    6.81947179056991    2.22408817223620
H         2.26586443667236    7.41003118014190   -2.02180273233105
H         2.56403580410149    9.71328982791808   -2.82190710593235
H         2.58693723692117   11.58897942340559   -1.21953367972883
H         2.30625965359268   11.14700740067984    1.19174440634592
H         1.99372742368250    8.84830398128807    1.99662894070729
H         0.58217314396129    6.03276173088595   -1.05304944544416
H         0.26296807112687    3.73715474480106   -0.24453132650894
H         4.35598146479000    1.13860894462457    2.18461810033748
H         4.07383888680767    2.84403235694278    1.82506476794584
H         4.15346385664734    2.28883593053736    3.50256112358868
H        -1.63039658143058    0.37567487961923    3.55812699973988
H        -0.49301512961620   -0.96213946942306    3.76728406677917
H        -0.25788125799998    0.53462299311494    4.65782868898310
C         1.67888493049867   -6.39267988084686    2.55554670759245
C         1.78910303906346   -5.08384719592566    2.42513951371170
C         1.82253838244864   -4.36273022932465    1.11338401657041
C         0.69371841955166   -3.33343583926257    1.01774103991733
C         0.72296303858752   -2.60835205143540   -0.33245702958445
N        -0.23846874895756   -1.54863511458610   -0.33253033558510
C        -1.14433766904726   -1.44684975211409   -1.24026580725490
C        -2.20731092625202   -0.48637989015152   -1.05913985274747
C        -3.10483790972377   -0.19122555037765   -2.08202440375384
C        -4.16137541260571    0.66306740343038   -1.81956809191335
C        -4.35145575393012    1.08516982440363   -0.51548519527673
C        -3.44433245294261    0.71428068216008    0.48105256666976
C        -3.84462747931797    0.93306044627823    1.87832524043350
C        -4.44650098099753    2.12300190166606    2.29083520351349
C        -4.95782600600216    2.24336288259996    3.56730361624829
C        -4.89586304905585    1.16385822766071    4.44746170979165
C        -5.46625234647315    1.23755476563454    5.81766523234153
O        -5.44039477323636    0.32197992997337    6.61085497378096
O        -6.02394399858738    2.42397736141079    6.07116664078169
C        -6.60903365342364    2.61680191494730    7.35572520680484
C        -4.29593915183983   -0.02545434072328    4.03936455427241
C        -3.76703177282720   -0.13935599132973    2.76760926313377
N        -2.32736412678451    0.03047704998658    0.19645856801836
H         1.60418784000704   -7.04559313179528    1.70051791943169
H         1.66515959377893   -6.87270479659701    3.51938327127268
H         1.86398880305992   -4.45590149759647    3.30304067952565
H         1.73901944268424   -5.08340717507551    0.29813767107185
H         2.78206741814010   -3.84823076754592    1.01415466239194
H        -0.26704984343152   -3.83552063343154    1.14193478965440
H         0.80094314965234   -2.58780579015889    1.80823991469258
H         1.71290512450905   -2.15622428809620   -0.46368417260050
H         0.53451495877793   -3.30765370663804   -1.15377206222854
H        -1.18032074602753   -2.11459569300527   -2.09685358126248
H        -2.95643971277793   -0.61709486931666   -3.06113456592995
H        -4.84942752336987    0.94913700011071   -2.59934240163468
H        -5.22163843448079    1.66054353096219   -0.24536870660520
H        -4.49641387579196    2.96498778405159    1.61769875568039
H        -5.41591846242465    3.16514064134977    3.88661313166687
H        -5.83627635371866    2.89168690060009    8.07586928996892
H        -7.32835238745086    3.42427662725546    7.24619431542459
H        -7.09911726178336    1.70073661194978    7.68955761852268
H        -4.25758683589609   -0.85006643889639    4.73410857597073
H        -3.31826977312058   -1.06538157532164    2.44357770125330
Cl        1.97331747038535    0.36548755930063   -0.19837453723858
