72
 energy: -106.451024476403 gnorm: 0.000552217469 xtb: 6.4.1 (afa7bdf)
Ir       -0.42487286718115   -1.19648303651086    1.20262742766882
C        -1.72285631661145    0.84829824191189    3.62990961368247
C        -0.55520438860451    0.14945955719767    3.01966326129478
C        -0.15860382365505   -1.18006850178584    3.41001387250811
C        -0.81102424009686   -1.99219423739169    4.47641348724737
C         1.13954974223434   -1.44419436466264    2.84325982739168
C         2.01034472502394   -2.59103726183930    3.22468128091980
C         1.48215190091310   -0.34675670617581    2.01472155869318
C         2.78506149023106   -0.13718187839245    1.32130949272338
C         0.42255367468247    0.65267655422440    2.11219217872986
C         0.58272857630011    2.05121430674557    1.57953696073601
C        -0.59165059010763    2.56440291742327    0.73934072087945
C        -0.26006281784923    3.94496481039772    0.17887247390491
C         0.04059616567617    4.92429483046641    1.31121257782197
C         1.19112592395380    4.41017294182870    2.17282131950093
C         0.87036833396272    3.02689302646875    2.73248930111251
H        -2.60461863330094    0.21095479767256    3.63605959650397
H        -1.95780825263494    1.77597459492931    3.12134907033404
H        -1.47805618096366    1.08029930664734    4.66719700971999
H        -0.58541968386508   -3.04794265101973    4.35729513692740
H        -0.43141591879276   -1.67396799394577    5.44813551119010
H        -1.88856230702993   -1.85625240733064    4.47475902235519
H         1.43708801280339   -3.50786980817381    3.33236972550941
H         2.79831784142413   -2.75479774859676    2.49618298905427
H         2.47559719305045   -2.36772961128771    4.18532473856063
H         3.36175324724012   -1.05667119122414    1.27633657689348
H         2.63205444588734    0.22213398323735    0.30540762892463
H         3.36949779196818    0.60809426914430    1.86147061680405
H         1.45782666491902    2.04998065875072    0.92287883905562
H        -1.49400520900757    2.64975130306378    1.34501596254436
H        -0.77982404398572    1.86632087147595   -0.07801831891587
H        -1.09863360049645    4.31141751077449   -0.41656986463586
H         0.60761016234415    3.87424379905009   -0.48085248394050
H        -0.85014674897259    5.04996483529769    1.93146190248755
H         0.29606036524036    5.90209952971592    0.89791318005146
H         1.37851210446040    5.10306196987930    2.99567569257025
H         2.09988681894609    4.35953030857502    1.56826665607348
H         0.00258033275171    3.09638262119823    3.38863508651435
H         1.71177554748339    2.66160559711084    3.32435702152698
C         3.37264949766793   -8.27226557040236    1.17428175869883
C         3.56294601605508   -6.87401168107863    0.69614253460374
C         4.76417671845820   -6.42610913059893    0.26116438393452
C         4.98290157305200   -5.07445600607905   -0.20487899278131
O         6.03844656793045   -4.62831416999553   -0.59915369786451
O         3.90545205840315   -4.23024358114041   -0.18853070423569
C         2.68590312427887   -4.64331960196808    0.22548784547751
C         1.66065697657804   -3.70288313729506    0.18880716896788
C         0.38401473554528   -4.06077712373771    0.59446808231331
N        -0.64189319188105   -3.10929150451950    0.54445241659191
C        -1.77847634140228   -3.41506986857388    0.00078020559319
C        -2.77638538919743   -2.38907868226760   -0.01952448427393
C        -4.03031693095251   -2.51770166303844   -0.61958683450363
C        -4.89387940136797   -1.43904021183854   -0.60827531043788
C        -4.47724410594830   -0.25849369956280   -0.00159860519420
C        -3.22021325052353   -0.19987163996628    0.57433697579024
N        -2.38447242076598   -1.23524443132894    0.57925717179371
C         0.13349592767854   -5.36088310495803    1.05473464626592
C         1.15274143073507   -6.28198848882678    1.10155841222472
C         2.44942618980338   -5.95123614918345    0.68461710850482
H         4.30482841862763   -8.82528714883885    1.10953675212941
H         2.62251801720011   -8.77870787847008    0.56947548324606
H         3.03452938771069   -8.27515305886703    2.20915060211924
H         5.63505839244366   -7.06182496590194    0.23961207218835
H         1.85774358895291   -2.71342550597567   -0.19219969774637
H        -1.95262453940862   -4.37985970345666   -0.46084155458334
H        -4.30027024026191   -3.44974588213823   -1.08901350363143
H        -5.86829901875104   -1.50904614603590   -1.06528713137509
H        -5.11677203427921    0.60829261158270    0.02704269893906
H        -2.87107642244311    0.70609421213381    1.04464203093402
H        -0.85532277087946   -5.62564861213818    1.39464564228942
H         0.95087798580925   -7.27671448567829    1.46231337749747
Cl        0.06277501273149   -0.64827473467926   -1.07360850438266
