78
 energy: -121.182395381050 gnorm: 0.000474741927 xtb: 6.4.1 (afa7bdf)
Ir        0.21354149857754   -0.58819452717101    1.94784989551915
C        -1.42372001322516    0.84003696633934    4.52253653746663
C        -0.13396626166275    0.38055566007363    3.93270669928794
C         0.46923515587058   -0.89260839715845    4.17712247348017
C         1.76077376869927   -0.90376751914009    3.53880305486996
C         2.80943122151324   -1.95517062718718    3.69242689391383
C         1.98198595269607    0.38911116901168    2.96548808077132
C         0.79148279277400    1.17224287240499    3.15795243738750
C         0.66119621785578    2.59808140261154    2.82972850120366
C         0.30646946373576    3.52325502771245    3.81029926802152
C         0.21394935310046    4.86628495598018    3.50282677458363
C         0.46963036862925    5.32610222357724    2.21159557723725
C         0.37255525901993    6.75780115198170    1.89009682044309
C         1.31951861966942    7.36602158198965    1.06838262768714
C         1.23253519616094    8.71399168390480    0.77235486486408
C         0.19485468844213    9.47502767217208    1.28574253157235
C        -0.75433944018551    8.87960310588282    2.10068135636609
C        -0.66485183645640    7.53352228107555    2.40398047217968
C         0.82527130413361    4.39676439051571    1.23452135482171
C         0.92206433530502    3.05351795522802    1.53684139190527
C         3.26609182144975    0.87555701271683    2.39517645904278
C        -0.06308621427800   -1.90537855536506    5.13222516214912
H        -1.27002932471250    1.08234700689002    5.57481128303515
H        -2.17728898379358    0.05760556354564    4.47299200697283
H        -1.79401731704462    1.72654683820155    4.01549777738689
H         3.36423344374451   -1.78165094969434    4.61499901274650
H         3.50512329249424   -1.92356325019066    2.85868790586919
H         2.36810608688973   -2.94702171734148    3.73528262178301
H         0.13484450479286    3.19396180998168    4.82303039952148
H        -0.03644700362734    5.57348695227860    4.27926586897271
H         2.14156389717100    6.78469846773399    0.67681581254672
H         1.97824134351801    9.17400859439508    0.14012495272851
H         0.12674572683998   10.52746317802492    1.05228535862383
H        -1.56735512181432    9.46804175605612    2.50075325352490
H        -1.41713035388658    7.07522335026707    3.02914427183734
H         1.01234107649833    4.72960390891573    0.22469611429235
H         1.18165278368714    2.34251621881961    0.76621526731854
H         3.41612925086779    0.48598793933689    1.38826463983945
H         3.26825906922852    1.96142825318043    2.34100161028168
H         4.09581985952884    0.53948043093188    3.01398281216764
H        -1.10445943477970   -2.14250248626384    4.92612697735315
H         0.52898623654642   -2.81452966830736    5.11216250314451
H        -0.01379430322231   -1.48993279926904    6.13971207082642
C         2.09103102127227   -2.33684193984387   -3.14182159551928
O         2.12226357856734   -3.02884238476999   -1.89663208235598
C         0.97266506718018   -3.14874945205527   -1.24863336494690
O        -0.09427980020890   -2.76517710819605   -1.68112780828482
C         1.14317554287035   -3.88660269580424    0.03798864669136
C         2.03328025224643   -4.94402287042208    0.08963731442054
C         2.19675544477673   -5.70278619140289    1.25369043770901
O         3.07546648184782   -6.71874759357297    1.17464456205639
C         3.29726052282608   -7.53168937974056    2.31408910133724
C         1.45142234364163   -5.36654953740014    2.38535128414714
C         0.59541180294065   -4.28205787425262    2.35241757564756
C         0.42383531911677   -3.53313218446499    1.19432279483543
N        -0.40871082191676   -2.40192660886763    1.19035675892477
C        -1.46192414223116   -2.38187077682295    0.44237157646406
C        -2.13076662772094   -1.11892269167291    0.29278809999016
C        -3.25662386835234   -0.91931419536684   -0.50543811181553
C        -3.77113970131061    0.35794992111906   -0.62898006988007
C        -3.14043195524461    1.39952627617941    0.04313744732645
C        -2.02553520796416    1.12876702283248    0.81731747272371
N        -1.53242039176123   -0.09912433593219    0.95272371804971
H         1.33066393714064   -2.76699043294088   -3.79619618121628
H         3.08292943646377   -2.44569429036142   -3.57075160909669
H         1.85989641535823   -1.28378803192113   -2.96955859727708
H         2.60547086387028   -5.21156878439399   -0.78315225328570
H         4.04408270737710   -8.26105491602787    2.00762791846891
H         3.68491528597778   -6.94452055664909    3.14990259361991
H         2.38366178605836   -8.05133216349770    2.61326605702108
H         1.53303224793628   -5.94221055653851    3.29287795471687
H         0.01555562090966   -4.02733117421344    3.22456850350004
H        -1.82313462619078   -3.26505611181401   -0.06878005793269
H        -3.69290525893496   -1.75770416438925   -1.02348059471614
H        -4.63923026835708    0.54449944391953   -1.24139528254945
H        -3.50457890336513    2.41095157807885   -0.03154699673924
H        -1.50776397894098    1.92273238035146    1.33701043485972
Cl        1.29659989332017   -0.35149250385599   -0.14989240250551
