54
 energy: -73.749887994587 gnorm: 0.000338157345 xtb: 6.4.1 (afa7bdf)
Ir       -0.49162097522574   -0.60491542139641    1.73614911110889
C        -2.92275495108903    1.15198474926530    3.43391750200196
C        -1.54765507178827    0.58133025055131    3.36885553225613
C        -1.18278987384226   -0.72602894100671    3.85537686004790
C        -2.11460711355251   -1.67654459904483    4.52853714837770
C         0.25723239932912   -0.80309726027889    3.87658925978171
C         1.05966173458055   -1.84447654691229    4.58028068110851
C         0.76570068929693    0.38767095868934    3.29210266097519
C         2.19059578412347    0.82090659062033    3.23858821363822
C        -0.36052468258104    1.24892906843725    2.97028781301621
C        -0.21676477561759    2.66731810859747    2.53214541320235
H        -3.13135598224549    1.43258780662733    4.46736290866780
H        -3.67366641430430    0.42643788090300    3.12985401932958
H        -3.01605598654614    2.04493510381152    2.82212475123853
H        -3.10731586956435   -1.62884140120549    4.09009153188003
H        -1.75305141338771   -2.69896091851184    4.46451674363660
H        -2.19756180046580   -1.41170634272119    5.58334456764720
H         0.50966574003451   -2.77656028763192    4.67464975365446
H         2.00665151121777   -2.02890000772697    4.07970217404566
H         1.28047076268372   -1.48489449278235    5.58635944153825
H         2.41718982316789    1.28343598127339    2.28023897022305
H         2.86745678591593   -0.01382836065347    3.39488935530259
H         2.36899323666934    1.56193716894118    4.01857524144281
H        -1.17253999287587    3.10127848911841    2.25362563917194
H         0.45744841762445    2.73679216736233    1.68059963771784
H         0.20841429835509    3.25650672147466    3.34506287428553
C         4.28451513484410   -1.27529285251646   -1.55029278381747
C         3.99960746193839   -2.31084980356002   -0.78398035668050
C         2.61053660726679   -2.78606738386756   -0.48728998695883
C         2.32355263018225   -2.72044897256420    1.01491799463690
C         0.95358141831058   -3.31655850483801    1.36924297048511
N        -0.12109551060712   -2.45132243537410    0.95067479501575
C        -0.83626409663318   -2.78528373303360   -0.06836134439417
C        -1.88096823061894   -1.88331047126016   -0.46312647733052
C        -2.71366975436876   -2.06786957452294   -1.56674800834895
C        -3.66989258273392   -1.11182062339295   -1.85246124062512
C        -3.75864448470921    0.00808387353613   -1.03228319089338
C        -2.89617459937044    0.12867411868634    0.04284760828723
N        -1.98532442163660   -0.79481264434182    0.33732469753774
H         3.51060650495369   -0.69198037976743   -2.02229554739108
H         5.29814969480632   -0.96501489156245   -1.74143551654277
H         4.79487472430510   -2.87908284605208   -0.31732142224307
H         1.89335978525894   -2.16585901956647   -1.02631650533117
H         2.51374034488150   -3.82031940520449   -0.83063860738710
H         3.08894788470916   -3.27773910345156    1.55642054391634
H         2.35895259280848   -1.67727066957219    1.33281589349327
H         0.85249004689207   -4.29721022218072    0.89354972026848
H         0.88650822166725   -3.43843642146895    2.45104636585617
H        -0.66524779030091   -3.70541118244172   -0.61671497907872
H        -2.59361554125680   -2.94451153247626   -2.18245306124633
H        -4.32871122864024   -1.22787630310565   -2.69835893284320
H        -4.48604889370230    0.78006406478216   -1.22281912297871
H        -2.93869275609693    0.99341209564975    0.68690929358827
Cl        0.70877255793519    0.34626735767166   -0.09788360429041
