73
 energy: -114.722922954027 gnorm: 0.000608694084 xtb: 6.4.1 (afa7bdf)
Ir       -0.56603346443469   -0.70091922210850    1.89409290157108
C        -2.85600793497273    0.98582679276438    3.85356599637811
C        -1.49481976625064    0.41551665904636    3.65114295878848
C        -1.16352766746832   -0.93882774258341    4.03017665321428
C        -2.10495960743296   -1.89485801199801    4.67841471564674
C         0.26600897212504   -1.08200752643272    3.97598526457492
C         1.02621894125265   -2.21046069409704    4.58204134425470
C         0.80141102085405    0.12540017827740    3.43738326615553
C         2.24551065034814    0.48794313206061    3.34959645675699
C        -0.29938094952689    1.06671469834261    3.24257417935354
C        -0.07062114055977    2.52271142691532    2.94162812960158
C        -0.92860604126483    3.10459314475743    1.81272483469996
C        -0.51466052224505    4.54997311843851    1.54800987291608
C        -0.67561127758786    5.39319127281852    2.81086222258985
C         0.14435490845704    4.80487929856923    3.95621244753806
C        -0.25726240488030    3.35639513654860    4.22068013973095
H        -3.62818894575295    0.30671983692758    3.49817452296944
H        -2.97977681473438    1.94792116599520    3.36996715072968
H        -3.00988073995845    1.12243517132999    4.92506810541091
H        -1.77500625476326   -2.92199459149651    4.55369328158864
H        -2.14816337806548   -1.68066259622043    5.74714518214132
H        -3.10890853670578   -1.79646778854313    4.27562372222762
H         1.17527983283266   -1.98666459095957    5.63949978327830
H         0.47365954933678   -3.14316137339227    4.51734672102729
H         2.00301006434534   -2.33649346266863    4.12694403229407
H         2.87935269360192   -0.36462115199060    3.56908496863397
H         2.49282165070265    0.86211711044180    2.35833741023590
H         2.46316321501596    1.27396129616773    4.07230804542916
H         0.97080045351142    2.62784155250854    2.62362667586387
H        -1.98604953495723    3.09632478192000    2.07777950368199
H        -0.79074033551092    2.50871049206309    0.90949427779975
H        -1.12562493984994    4.96517808672946    0.74361642294662
H         0.52692836528225    4.57893990265801    1.22024526291773
H        -1.73020974947965    5.42484789295284    3.09547529407432
H        -0.35566353255149    6.41852841421870    2.61535955255475
H        -0.00443098863176    5.39712481376886    4.86117079916696
H         1.20524959399638    4.85049001041819    3.69968782302891
H        -1.30045065942116    3.32239233396421    4.53576398512688
H         0.35251723453921    2.94336459824006    5.02610375521170
C         5.61260803287810   -2.81596931303648   -1.87100373405984
O         4.80735585090108   -3.20284367356044   -0.75752744384399
C         3.52491196544263   -3.46964685249106   -0.98806585218401
O         2.99968693447624   -3.42203267865921   -2.07346475907966
C         2.81106865867687   -3.80800671607247    0.30240937736527
C         2.26507227486013   -2.58206657369763    1.06840246253399
C         0.90436584978972   -3.29990473874186    1.19505436003742
N        -0.25328787351604   -2.48387976468477    0.95647880571771
C        -1.10688664918544   -2.80717851526365    0.04326996578032
C        -2.19191877046801   -1.90218157939016   -0.19863051785947
C        -3.14230753232619   -2.06173988799423   -1.21056347248825
C        -4.10649109926859   -1.09113824314880   -1.38807863339330
C        -4.07969761753312    0.02401701953429   -0.54539283156408
C        -5.08811651640659    1.12829274595732   -0.72391039315952
F        -5.18964213073198    1.91110635077773    0.35866665570523
F        -4.77070710945222    1.93531770153233   -1.75178642824533
F        -6.31699226238275    0.65589650504966   -0.97771626710968
C        -3.10916068973718    0.12248621336352    0.43849280637906
N        -2.19572825502761   -0.82333257827271    0.62325079047733
C         1.37374403957155   -4.32552441902951    0.14386918153732
H         6.53059931705516   -2.41237802597633   -1.45301792737299
H         5.09330052525566   -2.06530292624720   -2.46889642904665
H         5.82662527411894   -3.68381342621396   -2.49705700072466
H         3.45914911330426   -4.43160224725597    0.91570685293527
H         2.77998764483146   -2.33512013839715    1.98954533006482
H         2.18973406795420   -1.69590919469252    0.44300985417775
H         0.78618394510655   -3.75683341176611    2.18110387151836
H        -1.01342636979298   -3.71159097586918   -0.54440835690057
H        -3.10773301481682   -2.93139930701642   -1.84665922363612
H        -4.86072612638108   -1.18003609879745   -2.15457091847557
H        -3.06973018213942    0.98253387063050    1.09058088606095
H         1.02833697527985   -4.10797765050631   -0.86491194316827
H         1.20196080075533   -5.37147330326684    0.37982492919637
Cl        0.50766296973026    0.30305326685670    0.00772134067458
