61
 energy: -107.929789143663 gnorm: 0.000473294822 xtb: 6.4.1 (afa7bdf)
Ir       -0.26814206590224   -1.05000986487002    1.67325756687640
C        -1.99883530289948    0.20713080932248    4.26388520057352
C        -0.67424350487530   -0.05254171281798    3.63624753865782
C         0.14652685073763   -1.19740718832977    3.87432667957812
C        -0.15006258841817   -2.30370683447230    4.82495896537065
C         1.39643539914406   -1.00356455375517    3.18101650454923
C         2.62468005880361   -1.82716161444084    3.36902564081619
C         1.35466654992420    0.27180457143822    2.53385650265490
C         2.50269170494945    0.93868687595196    1.86605733896603
C         0.05227450137321    0.84201100433333    2.76658051988567
C        -0.32830187283437    2.21643299034328    2.40872607346226
C        -0.77269901953252    3.09808416697253    3.39238084442854
C        -1.08079088319422    4.39810273141572    3.03772710565986
F        -1.50540030135092    5.24470438558229    3.99688279704685
C        -0.96837948499460    4.86556665808524    1.74013089711380
C        -0.52616343784347    3.96522400307775    0.78612711117408
F        -0.40837460570168    4.38161642080957   -0.49022236188348
C        -0.20514714622524    2.65632391839585    1.09099722692108
H        -2.52789990655636    1.00562986458181    3.75166454042221
H        -1.84904338051704    0.50211593052121    5.30321353621036
H        -2.61695349301180   -0.68775050420010    4.26467757947700
H         0.28744780387991   -3.23980216009257    4.48725733423192
H         0.28510475900797   -2.06075929121901    5.79491811515766
H        -1.21977244173188   -2.43481798445400    4.95745296018058
H         3.16035218993358   -1.45915527419624    4.24503926179351
H         2.38103240180488   -2.87195622755712    3.53729400501026
H         3.28354943444598   -1.75005647000780    2.50977859031253
H         2.66198909887009    0.53469895525146    0.86662384682679
H         2.32127950948791    2.00605050290904    1.77164516715908
H         3.40966200689585    0.77397105488645    2.44346813438712
H        -0.85259700231815    2.79733774922960    4.42360740730786
H        -1.21131273511283    5.88330619100801    1.48461166863533
H         0.12286447886750    1.98730844046138    0.31059838169424
O         1.50150882011741   -8.37510497054176    2.88923053575821
C         0.70769566326139   -7.47672637058096    2.73110590527811
O        -0.56759020006985   -7.56254771533368    3.09402208114272
C         1.05313796215430   -6.16858911304105    2.10888335339776
C         2.36675312764541   -5.94405024064124    1.70105118864719
C         2.71230351019427   -4.73953128441572    1.11164957449943
C         1.75906495343285   -3.75343520661954    0.93055406925928
C         0.44134486217136   -3.98015632725625    1.32933737472142
N        -0.52199047189517   -2.98127706501143    1.11474500744811
C        -1.63422047040835   -3.28083339134332    0.52036004106861
C        -2.57310423948853   -2.21849222680034    0.32194533160825
C        -3.78326106220527   -2.34326937241719   -0.36590687040331
C        -4.59141685824377   -1.23576810350766   -0.51755277996779
C        -4.15652976625742   -0.02407895984613    0.01954494864599
Br       -5.21994403693728    1.54647157138255   -0.13522967907234
C        -2.93975570156109    0.03969646328120    0.68701908172589
N        -2.17320042277152   -1.03058533165912    0.84274197776737
C         0.08464093808442   -5.18942253845683    1.91997749832108
H        -0.77439771380510   -8.42593276985800    3.49445791680896
H         3.09622461850721   -6.72387889386876    1.85423314909964
H         3.72710570038985   -4.56960587410359    0.78932458993101
H         2.00519466276771   -2.81865368529173    0.45054380575603
H        -1.83105919985607   -4.28084051328455    0.15216027144675
H        -4.07242891876476   -3.29857483047560   -0.77423968766111
H        -5.53261072936141   -1.29678616821656   -1.04061674950558
H        -2.58405969781926    0.97512785200386    1.09401281396462
H        -0.92701804575781   -5.36078314240397    2.25191899904432
Cl        0.46225814141388   -0.63206133577731   -0.54838442929588
