70
 energy: -103.422295561475 gnorm: 0.000820106468 xtb: 6.4.1 (afa7bdf)
Ir       -0.75985049691286   -0.95089845970753    1.13934441803988
C        -2.21062953911090    1.24114522649209    3.35117635957916
C        -1.10531058965764    0.30580294378183    2.99443301112793
C        -1.11360952531850   -1.10613196784266    3.32269912056645
C        -2.20735174720654   -1.79441124932708    4.06766042685813
C         0.19762585417975   -1.62099649657935    3.08383510111737
C         0.70632620955057   -2.95230853445744    3.50955011947490
C         0.96891347247683   -0.58316552283474    2.47309340704401
C         2.42361872244377   -0.62520843371084    2.15985000718189
C         0.17123931049049    0.62822432408356    2.46709950744914
C         0.72172263987952    1.97855792860716    2.14625943172368
H        -2.25036098279807    1.33637243328029    4.43699456620157
H        -3.17331739447258    0.86112352832803    3.01560660704827
H        -2.04965454060859    2.22624207437507    2.92538990117534
H        -3.18317979169251   -1.45507135138993    3.72987779568540
H        -2.14668215082690   -2.87216372745654    3.94552726176475
H        -2.12031582196522   -1.56818341877240    5.13088758035057
H        -0.07252693071952   -3.70962528888083    3.48074975764214
H         1.53567855493567   -3.27806717131909    2.88760826240527
H         1.06352023615420   -2.87252225253478    4.53731286230709
H         2.64343606762423   -0.01134257248541    1.29013288313958
H         2.75826110845380   -1.64014696958803    1.96523152758366
H         2.98830838261729   -0.23152624458710    3.00569003117572
H        -0.03417854174472    2.75096196763054    2.24631531063191
H         1.11841551950034    2.00301807608629    1.13241240899538
H         1.54074992395023    2.20111544278982    2.82980106963063
C         1.72474446671962   -8.14604980756247    1.45163768681602
O         0.70960853952646   -7.16153093030165    1.37041423415573
C         1.01716710160678   -5.93658655500262    0.90040581727124
C         2.28536276093391   -5.53653194690248    0.48269528956299
C         2.46896869079643   -4.23791743119608    0.03014713322695
Cl        4.05380492389358   -3.74756895690532   -0.48394822533634
C         1.43460779109807   -3.32392604899772   -0.01688789130579
C         0.16360667859314   -3.73190963878079    0.38914251175277
N        -0.89384267540828   -2.81327866067106    0.36452552806641
C        -2.07359052204665   -3.18524019694326    0.00518937031076
C        -3.15303210929552   -2.23939152470785    0.06323082786884
C        -4.46446812500363   -2.66706437397741   -0.03950837435995
C        -5.46867114445883   -1.73280402453386    0.21733233495674
C        -5.12241546248667   -0.41674936199015    0.33523363141724
C        -3.76488600815564    0.00209766253837    0.16203504857837
N        -3.51177658986994    1.29071344171156   -0.08279118434808
C        -4.58344129632966    2.20054673914854   -0.47705732729527
C        -4.08745087613760    3.17821810593069   -1.54021600640589
C        -2.98998779963071    4.08980209313470   -0.98736800252811
C        -2.18814813740955    3.33526401819483    0.07686548790118
C        -2.17681388566520    1.83985037454242   -0.21698763549688
N        -2.78802668653077   -0.93903185871536    0.24608164847654
C        -0.04157411708428   -5.02677663600892    0.84983048466623
H         1.23516956275512   -9.03232997767780    1.84983086026670
H         2.52503141178170   -7.83449485781742    2.12778135302658
H         2.13822998913014   -8.37084888347022    0.46486796979599
H         3.12566902476014   -6.20914420831649    0.50648532857405
H         1.58805177757391   -2.32343496355811   -0.38447894066134
H        -2.26890153816329   -4.18979249630401   -0.35453422696255
H        -4.68772594557282   -3.70218644277305   -0.22946522305970
H        -6.49579534565247   -2.04393608879508    0.32038421407459
H        -5.87076053837286    0.31529811130164    0.58316682912023
H        -4.94871118117700    2.75330039789661    0.39468395688368
H        -5.40673957139680    1.62925978524317   -0.90640738842537
H        -3.71067400643545    2.60657857296219   -2.38927510930126
H        -4.93254377048634    3.76915035092068   -1.89316990422028
H        -2.33783036350179    4.40614301646217   -1.80154885552781
H        -3.42564696414332    4.98850370646749   -0.54951375111337
H        -2.63171269856149    3.50223905510215    1.05933936720565
H        -1.16208608271981    3.69896745072081    0.10372859465759
H        -1.51398202642498    1.32362317305336    0.47737325750393
H        -1.78986018445232    1.65727557730117   -1.22433255277203
H        -1.00641617714938   -5.35218528750652    1.20385249177992
Cl        0.20330816133390   -0.29136575720193   -0.95143339469642
