65
 energy: -91.625486994500 gnorm: 0.000356499606 xtb: 6.4.1 (afa7bdf)
Ir       -0.14918954531540   -1.12528490771290    0.91253407247743
C        -1.91025601643090    0.69329953312089    3.28042464792418
C        -0.66082942228208    0.00719021499542    2.84800729642031
C        -0.37341710089564   -1.38114116852097    3.11237836570002
C        -1.25161353719244   -2.29588291188762    3.89800952081547
C         1.01327390548553   -1.61499289593560    2.79242653914705
C         1.81178730781626   -2.80268576310259    3.20819869295552
C         1.53113955735735   -0.42314313722830    2.21295449097295
C         2.94982360088491   -0.13770088219220    1.85871916721143
C         0.48852871031016    0.58731259761952    2.25135194848042
C         0.74154489081108    2.02702072776393    1.95014814429707
H        -1.91530754354330    0.74929119744843    4.36947499553830
H        -2.79487757329743    0.14070654614834    2.97236982061642
H        -1.97522043986102    1.70112325322955    2.88358550951140
H        -2.30068673334191   -2.08359627632722    3.71233613094668
H        -1.05609281109453   -3.33732330966654    3.65807140763288
H        -1.05987777457446   -2.15164955232933    4.96214481092718
H         1.18597905997509   -3.68123589801582    3.33669841608635
H         2.60712203745303   -3.01819461673884    2.49983885042484
H         2.27522090615407   -2.58137694015193    4.17083436283847
H         3.01105198769087    0.34111858253897    0.88312023128115
H         3.54795457428321   -1.04361455002828    1.84788687625158
H         3.37258311415136    0.54768771412951    2.59364922558097
H        -0.15206867720182    2.62990991095456    2.08206588737139
H         1.10794215780070    2.14894422743664    0.93170153298336
H         1.51194903433376    2.40221037602037    2.62400105266647
C         6.49034418800141   -2.18307911927680   -1.21905522636838
C         5.20425134933878   -2.62360503978515   -0.52849965235410
C         4.53177193625079   -3.77551213098709   -1.27382659131106
C         3.28143562895552   -4.30908257661995   -0.57182975743579
C         2.11556246206882   -3.32322994649371   -0.61755653437369
C         0.86726546408597   -3.91704967286291    0.04587288827263
N        -0.21831855462432   -2.97048750261040    0.05164380618537
C        -1.31392073655920   -3.26868527192253   -0.55776299806086
C        -2.33873406022011   -2.26939311184719   -0.62128923044794
C        -3.59331788850084   -2.49160704207919   -1.22296469017537
C        -4.49617204669720   -1.46914054194265   -1.27777636382656
C        -4.11449949090557   -0.18824882046294   -0.81746995355992
C        -4.96256984151649    0.92829869784603   -0.93243539085964
C        -4.52315965841936    2.16998424477057   -0.54990376804986
Cl       -5.55846506825069    3.54880527636405   -0.70642012055175
C        -3.21871874763962    2.34763981231622   -0.05634856885272
C        -2.39111759142888    1.26997321172697    0.09702131056468
C        -2.81605911661056   -0.02710486789148   -0.25048455430043
N        -1.99096654847703   -1.09024926409235   -0.08597390593965
H         7.19583782752425   -3.00930139081765   -1.28245856498553
H         6.28200454383366   -1.83566983619315   -2.22892868863816
H         6.96297251862938   -1.37201380133588   -0.66945769711124
H         4.52555911587212   -1.77157150453604   -0.47687980710479
H         5.43798680824272   -2.94123300267410    0.49071605905251
H         4.26978693398359   -3.44665653646292   -2.28164998219140
H         5.25087466052035   -4.59227125727207   -1.37266669004764
H         3.52821767625773   -4.54717043047542    0.46521883127265
H         2.98030074158669   -5.23830680060103   -1.06025245638029
H         2.38086975897410   -2.39463417235753   -0.11361401679081
H         1.88491703711741   -3.07725363844755   -1.65469604598997
H         1.10513477555501   -4.17856466520510    1.07884385357813
H         0.56893585113754   -4.82732122508430   -0.48410228968678
H        -1.45690327332724   -4.22608244357496   -1.04826764077463
H        -3.81989278912891   -3.46968350263843   -1.61421776771361
H        -5.48171688009309   -1.61121520063132   -1.69261769771941
H        -5.95030611827996    0.79714287929825   -1.34431064260619
H        -2.88088411163144    3.34180587364920    0.18789836524233
H        -1.37493381204470    1.40147144714183    0.42877136112142
Cl        0.73967238694365   -0.16571719750070   -1.08312617813977
