55
 energy: -84.685811850202 gnorm: 0.000542772525 xtb: 6.4.1 (afa7bdf)
Ir       -1.25079165264070   -1.25032686491255    1.14778795810898
C        -2.57168319095403    1.10839408264703    3.26503419410484
C        -1.44291320666743    0.22342084157027    2.85607203295708
C        -1.21754784653669   -1.11412150587929    3.36690420950717
C        -2.05786537051222   -1.79322715870221    4.39400210857809
C         0.09135520403546   -1.53036869845849    2.95194968066384
C         0.81331971764213   -2.73532696631080    3.44436419509085
C         0.61625737546583   -0.52180565249886    2.08697902012399
C         2.00524515596069   -0.43940590630379    1.55204316663483
C        -0.32532446659316    0.58654987337751    2.06622879522180
C        -0.03173838247941    1.91374782937142    1.45665197179857
H        -2.31206013512197    1.59352738537004    4.20694398328753
H        -3.48268182255728    0.53785525272542    3.42614660818389
H        -2.75308138122704    1.88677521345420    2.52837324034602
H        -3.11267113716776   -1.57740379350460    4.24915564202044
H        -1.91275231407935   -2.86947821721262    4.37007684136532
H        -1.77193201441106   -1.43491854995895    5.38353794146060
H         0.13138091026611   -3.55981221422043    3.63233759708550
H         1.56991853086973   -3.06247106849435    2.73695504025115
H         1.30899610746567   -2.48454729203670    4.38274284499624
H         2.00734139740340   -0.00250164147656    0.55618161896591
H         2.47299398284448   -1.41842061634684    1.51225873001672
H         2.60061517731251    0.20236267052213    2.20247398129168
H        -0.87547413780395    2.59054171021479    1.54645374687067
H         0.21806084236120    1.80429693560114    0.40262457943696
H         0.82756012270320    2.35672439357023    1.95945528106674
C        -6.10078421048194    1.56612388644180    0.27363401324403
O        -6.32246984401508    0.27246572861585   -0.27005356044759
C        -5.37200206479123   -0.65084313862452   -0.19458637245548
C        -4.13871400063314   -0.50192945267548    0.44412937916842
N        -3.22258365882052   -1.46351892783844    0.48303574488223
C        -3.47059634093288   -2.64423416835045   -0.12810076788027
C        -2.37488028324578   -3.56221529946718   -0.09582650903357
N        -1.27150859113435   -3.13784759192992    0.43272202302482
C        -0.15145752376087   -3.98003639096233    0.49205323369349
C         1.07074765275327   -3.52525445081404    0.00002373017642
C         2.17718198151581   -4.35283586096635    0.04548124895188
C         2.08001800175244   -5.62158019981630    0.59820611068509
C         0.86603623591409   -6.06892643413029    1.09687024245361
C        -0.25323077836339   -5.25901667349878    1.03849829976684
C        -4.68690466010898   -2.89160589116882   -0.77368445035034
C        -5.63644305549020   -1.89912460661366   -0.80329584337837
Br       -7.31329964880515   -2.15039077659842   -1.66177141313053
H        -7.00052096917444    2.13121624134592    0.04065440217034
H        -5.97067240505262    1.51653456736411    1.35632335674067
H        -5.23721166818304    2.04250548929227   -0.19439086971076
H        -3.88142900912048    0.42454103243661    0.93276659461337
H        -2.45494349656597   -4.54844889013634   -0.53748339883714
H         1.12262897795397   -2.54311708212871   -0.44310976415587
H         3.11858173712098   -4.00781749050984   -0.35348820950780
H         2.94856105820161   -6.26016726771296    0.63947714695830
H         0.78963629207634   -7.05370989804877    1.53094943895048
H        -1.19882230003474   -5.59753904698963    1.43426291295762
H        -4.86202537733560   -3.84079301578213   -1.25278178542089
Cl       -0.84107051681408   -0.51011643284779   -1.08570094357095
