78
 energy: -110.823811547348 gnorm: 0.000138453786 xtb: 6.4.1 (afa7bdf)
Ir       -0.03546124672845   -0.14346484164978    1.57641366759007
C        -1.59908829869165    2.02477621834701    3.73423261986668
C        -0.34693136038296    1.42548794569842    3.18807300300773
C         0.24397198320350    0.23072037316415    3.74687605699371
C        -0.28220058930104   -0.50547881067324    4.93252117835781
C         1.56031842478546    0.08124206505814    3.18952514788756
C         2.60109392378559   -0.85950537772368    3.68898310512410
C         1.72160087933282    1.07971905220459    2.19296760496178
C         2.97467568954406    1.36689794038996    1.43649732890123
C         0.53603045409046    1.93287499026923    2.19811921485132
C         0.48072564294653    3.24858748838370    1.46952876361967
C        -0.76948346469738    3.45908842551227    0.60838060853502
C        -0.65448701429305    4.77644972431779   -0.15354629693329
C        -0.48603484710695    5.94301721652429    0.81716339397609
C         0.73968469062071    5.73174149796641    1.70232354618466
C         0.63624950005511    4.41210093732450    2.46216303246930
H        -2.37224829835351    1.27031618130983    3.86394630126080
H        -1.98170284691699    2.82002937170859    3.10507097293185
H        -1.37899957283593    2.44208782416416    4.71765263917999
H         0.11239699923605   -1.51698733432632    4.97340122346913
H         0.02507282536567    0.01389758697548    5.84106581381001
H        -1.36763850646811   -0.55003308302133    4.92104611509430
H         2.16216957840213   -1.78267992276294    4.05796266012739
H         3.32366606134823   -1.10551860971325    2.91630329364842
H         3.13179304792750   -0.38304370312125    4.51392460309290
H         3.66541367990552    0.53115456471597    1.49830992662024
H         2.75926176512782    1.56183583103992    0.38787743419977
H         3.45974053622768    2.24885271856845    1.85521614098073
H         1.33672751042651    3.27898316567186    0.78876903707854
H        -1.66548646657564    3.49790606064518    1.22810838863146
H        -0.86620849735857    2.63007452829161   -0.09423609950533
H        -1.54657604665388    4.92746411353171   -0.76482860831078
H         0.20441565134809    4.73633513291910   -0.82732389287954
H        -1.37704453476719    6.02727460322199    1.44421355930825
H        -0.38413141904084    6.87686112831963    0.26071352994104
H         0.83262061742148    6.55677624180983    2.41160379099899
H         1.63769817204126    5.72637995207728    1.07998613495465
H        -0.22301172577302    4.44852723083637    3.13230031611480
H         1.53066479305788    4.26269180595694    3.07017615050571
C         2.19784578562304   -9.69870946598462    6.29303290153334
O         3.20888332053591   -8.73803777369813    6.07017131047409
C         2.99698572489769   -7.76692150780096    5.14334183672702
C         1.85455263612042   -7.64224818264238    4.35804285572372
C         1.74565913959453   -6.59997427566584    3.45524886162771
C         2.76436686147766   -5.66543994639583    3.29945217214995
C         2.64047786533490   -4.55017594204082    2.35099216835971
C         3.73907029292921   -4.11416623269038    1.60830422489777
C         3.62924093316263   -3.03605227382221    0.74693558041813
C         2.43188236625401   -2.35582702940030    0.62030870429701
C         1.32235771866013   -2.79749910552619    1.33853499258366
N         0.10474409987539   -2.11150738216634    1.21198947400274
C        -0.97014446279042   -2.73961655441772    0.85896337542171
C        -2.16084582305500   -1.94832976894660    0.74991290025848
C        -3.38999842672300   -2.41568944744037    0.28358903807762
C        -4.44766771168354   -1.53194929631140    0.18092072937411
C        -4.24598428936238   -0.20334147027491    0.54029101009207
C        -2.99989626961440    0.19234372037495    0.99413468387822
N        -1.97979953184544   -0.65291251784525    1.11051261549039
C         1.42362465085049   -3.89312401293529    2.19002811500066
C         3.91158076650130   -5.80540642913332    4.08352349636057
C         4.02580016133034   -6.83254383820100    4.99214029710453
H         1.99995702787003  -10.28628326576290    5.39175317728216
H         2.58364219119915  -10.35315901384166    7.07243094233935
H         1.27222329393472   -9.22871475125551    6.63828439814064
H         1.04660131453077   -8.35172312920848    4.43950631425451
H         0.85809733346386   -6.53462402632640    2.84440100060022
H         4.68000910216827   -4.63395964232856    1.69750406347469
H         4.48575188983246   -2.71922692322832    0.17179814469061
H         2.32911563250376   -1.51315701308672   -0.04484711096894
H        -0.96234116082009   -3.79498530693361    0.61421480675921
H        -3.49248085359850   -3.45112514587435    0.00178663374243
H        -5.40895082043041   -1.86479960551729   -0.17724476848289
H        -5.04245032954307    0.51910965922849    0.47061834282734
H        -2.81175844379517    1.21862746407783    1.27034902414865
H         0.56203286637343   -4.19871606461782    2.76381476134792
H         4.71098526787888   -5.08513342649866    3.99891316338885
H         4.90609243657421   -6.93791293213354    5.60635505931091
Cl        0.21196775330745    0.19008762226968   -0.78125770322753
