84
 energy: -136.345225006808 gnorm: 0.000548310866 xtb: 6.4.1 (afa7bdf)
Ir       -0.65204235996992   -0.61521869574516    1.34770295030009
C        -2.04982782279637    1.17392977889702    3.92083431070978
C        -0.85053505670488    0.52962145114407    3.31672787906073
C        -0.44651170199423   -0.82756534756179    3.54950238264932
C         0.86723900055481   -1.00537615774188    2.97857491243536
C         1.76433676408579   -2.16354042601333    3.24648288312165
C         1.21308082871425    0.18751216189661    2.29053072418270
C         0.13925649248422    1.15122977466670    2.49711487964087
C         0.25515466687870    2.59282673278548    2.22257960644982
C         0.19807417407804    3.48937150811912    3.28915128094046
C         0.36974832407492    4.84227094048270    3.07572717058343
C         0.60026466910611    5.34181300268502    1.79475958013260
C         0.81235498257205    6.78056639178492    1.57592246752525
C         1.79223373075467    7.22123827112223    0.68810869149655
C         2.00848346328121    8.57286154205068    0.49244278464144
C         1.24531710590865    9.50678531954489    1.17438604845430
C         0.26489171866206    9.08003132281745    2.05534252654543
C         0.05195842541322    7.72868326046924    2.25775767216139
C         0.63975309592960    4.44224488711719    0.73018571620760
C         0.47152842977640    3.08788660947647    0.93839092373099
C         2.53469299173261    0.51525977675705    1.68756697480588
C        -1.12583527228401   -1.77123298506310    4.48241582630323
H        -1.89564616550204    1.26445283264365    4.99652684363655
H        -2.94278249403149    0.57173726276183    3.76721746350970
H        -2.21310600514863    2.16378464995862    3.50556180090339
H         2.29380632778594   -1.98026729354322    4.18233858857041
H         2.50271304344168   -2.28934972657599    2.45998713862093
H         1.20495670190875   -3.08894739671105    3.35242260709530
H         0.05384164404547    3.12027539584169    4.29277979426175
H         0.35329422453744    5.51901257099580    3.91670756532460
H         2.40384509958222    6.50024133822859    0.16547396214646
H         2.77741296567150    8.90043034045287   -0.19237112762406
H         1.41473606447876   10.56235711329792    1.02009251658123
H        -0.33460085820676    9.80490913944133    2.58687318775629
H        -0.72250590939328    7.40624920754211    2.93827139062235
H         0.79154679635180    4.81009938149085   -0.27337271753930
H         0.48635157543386    2.40908564241383    0.09894147839679
H         3.10138059702792   -0.38482436126976    1.46833178622596
H         2.41312550522200    1.08881314569156    0.77252803429762
H         3.10461947994309    1.12362457963089    2.39080326313330
H        -2.20468873801836   -1.64660581365680    4.44607814511637
H        -0.87775348178636   -2.80288597218151    4.24940071382778
H        -0.79577072188217   -1.56682789310490    5.50163292492256
C        -6.96315599151745    5.82264478744004    0.32472997416222
C        -5.72619382260528    4.95589368714152    0.50016457980269
O        -6.11989793491366    3.60066259633960    0.30215285392707
C        -5.22704016250968    2.61195197265011    0.39752189253155
C        -3.85311965164738    2.79011394175067    0.69050995655162
C        -3.01390367093769    1.71708456144088    0.79229826275085
C        -3.47585274423688    0.40138363231419    0.59298316383439
N        -2.63598750142499   -0.65195326127588    0.69831409600788
C        -3.07005834217915   -1.87384963138730    0.34180254161140
C        -2.05883085767254   -2.87977923983889    0.31862249656733
N        -0.86317460076785   -2.52637367393964    0.67368340317018
C         0.19170277944607   -3.44403343830664    0.61504978982769
C         0.04785594805909   -4.73430333051464    1.12787278168210
C         1.10262007153790   -5.62437400391940    1.06387089722078
C         2.29981631895028   -5.23214349048243    0.47541717433638
C         3.44941443196330   -6.19824157552714    0.43321893930444
F         4.14994720548408   -6.19956089946724    1.58963829591851
F         4.33637240951787   -5.92316801678916   -0.53560584324405
F         3.05578701415040   -7.46962453841397    0.24181185597571
C         2.45094810046385   -3.94741880086511   -0.03558486407481
C         1.40175448430668   -3.05273574801134    0.04204357802185
C        -4.40954831205809   -2.12414298292963   -0.02676687670491
C        -5.30172185970673   -1.09383542636317   -0.04160957274835
C        -4.85201302307975    0.21836982267106    0.24216531239302
C        -5.69785414374783    1.32583381326140    0.17321579090115
H        -6.69633808397350    6.86797357813614    0.44794311836747
H        -7.38234548978409    5.67801885381954   -0.66702020291089
H        -7.71586560546255    5.55804507994357    1.06208775945860
H        -4.96253689509739    5.23154567423173   -0.23726705643185
H        -5.31578904620452    5.07873518476062    1.50963247466076
H        -3.45177782897842    3.78086501971289    0.82766463376461
H        -1.96378652917697    1.87544887122056    0.97824552964360
H        -2.27309800428343   -3.87460282694705   -0.05501177992613
H        -0.87808040967707   -5.03153140383449    1.59509405634911
H         0.99835798557668   -6.62197674233183    1.46172231705242
H         3.38302041468793   -3.65500950497224   -0.49329839423051
H         1.49516722621668   -2.05682574997572   -0.36347083522592
H        -4.70007590657341   -3.13016516787025   -0.28079638356022
H        -6.33899740847432   -1.25300902575279   -0.29093615902818
H        -6.73775096152943    1.19104196805143   -0.07732086226671
Cl       -0.11945990385427    0.02084917179022   -0.89084824731054
