70
 energy: -101.872495952316 gnorm: 0.000465015109 xtb: 6.4.1 (afa7bdf)
Ir       -0.88329759535857   -0.76245376780420    1.35098123842971
C        -2.20746793217949    1.51535167394369    3.66613559759491
C        -1.11007041794475    0.63114908093391    3.17525648331927
C        -1.01723448685221   -0.76135868903657    3.56824289761039
C        -1.98371537797526   -1.44944779991674    4.47157264085020
C         0.28933936712755   -1.23471141249172    3.22626489603112
C         0.89225831916758   -2.51118619744988    3.69857008349359
C         0.93965904134773   -0.20454629331784    2.48118391594228
C         2.36958748729767   -0.21352135074491    2.05336646212121
C         0.08717948112973    0.97822116673099    2.49808138298544
C         0.60115339350204    2.33868836659668    2.11390736899846
C        -0.28025108116203    3.14606984285361    1.15565304045211
C         0.41887431799245    4.45386592065693    0.79329392750966
C         0.70654986020867    5.27350352447390    2.04882622237334
C         1.56061372626194    4.47062026767529    3.02657354057804
C         0.87380572181247    3.15676053523916    3.38879262973375
H        -3.18485155941252    1.07917780308851    3.47078179209922
H        -2.17105174173109    2.50114393827222    3.21805032240693
H        -2.10143584953314    1.62147809846999    4.74664522552093
H        -1.90919147853979   -2.52901452290809    4.37977721685377
H        -1.75877575921684   -1.18179213477081    5.50461766512241
H        -3.00475842430327   -1.14561523583972    4.25948833984183
H         0.15194010721562   -3.30380394739265    3.76500562827913
H         1.70300692568027   -2.83880320635452    3.05444341239581
H         1.29786782831095   -2.34711162328881    4.69785281934127
H         2.75772058820135   -1.22682313528522    2.01385454437557
H         2.48662670704997    0.24149267948455    1.07277613557496
H         2.96544417608449    0.35546210648664    2.76721910442651
H         1.55850665122818    2.19264073541359    1.60523081758242
H        -1.23955328264092    3.38412609726166    1.61581932242357
H        -0.45867618266615    2.56230141210197    0.25157001034239
H        -0.20883303261185    5.02828546994580    0.10908224775185
H         1.35684026584424    4.23715371021775    0.27691767295461
H        -0.23596742294714    5.54812625870178    2.52884501627438
H         1.22172845080980    6.19763279362326    1.77957504376401
H         1.73568365015625    5.05358931408311    3.93311600324267
H         2.53235041009007    4.26446731293670    2.57168356962388
H        -0.06469931348627    3.37000378908113    3.90081714240135
H         1.50550747058584    2.58236904818591    4.06909292174405
Br        4.28432894164653   -5.92550454846065    0.43127637091664
C         2.66755275378968   -4.89171936447741    0.49038637185297
C         1.52170903729340   -5.44953380627873    1.03961683122892
C         0.35673444374838   -4.70879206734629    1.07976480808091
C         0.33924623525782   -3.40343541355797    0.58392383595018
N        -0.83189726260683   -2.63658666976228    0.61601785676137
C        -1.95518514841484   -3.15444372714715    0.22896695331914
C        -3.10039572291772   -2.29836837691502    0.22127724859238
C        -4.37154116137853   -2.72604921521378   -0.21219080034547
C        -5.39833209560696   -1.82613975133918   -0.25063433032613
C        -5.14450801097396   -0.47467370569122    0.06734838849739
C        -6.13317209335890    0.52386894971987   -0.02968468048789
C        -5.82837618371034    1.83533901804880    0.21894896821583
C        -4.51730555835509    2.20121783143186    0.56415883522886
C        -3.54066669317190    1.25179779811422    0.69909381379438
C        -3.82683147219999   -0.10711682767115    0.47408668952881
N        -2.85355766792792   -1.03928976527407    0.61230783820301
C         1.50130547594440   -2.85210983726890    0.04347390693614
C         2.66247840249138   -3.59745369505267   -0.01162718921977
H         1.54226996891313   -6.45397753806554    1.43066014823109
H        -0.53216679900718   -5.13263264232618    1.52056613932150
H        -2.01533242450778   -4.16837835682965   -0.14911445303867
H        -4.50934424391148   -3.75605502577277   -0.49737821405461
H        -6.39258487581771   -2.12263881438967   -0.54707252371692
H        -7.13018739311544    0.23451649142076   -0.32438251204263
H        -6.58796766285018    2.59647632658090    0.13344539054981
H        -4.28270781863344    3.24296384137057    0.71734342430891
H        -2.52253202180536    1.52252735993496    0.92640159730627
H         1.47026418403323   -1.85185114093421   -0.35910812240378
H         3.55791211366260   -3.17807891725497   -0.44177872668429
Cl       -0.34466525502596    0.04203396067358   -0.82791216688121
