88
 energy: -132.221205535948 gnorm: 0.000531976790 xtb: 6.4.1 (afa7bdf)
Ir       -0.78500466513159   -1.15529871648840    1.17725364038178
C        -1.13373180428500    0.62580623654057    4.02872259435456
C        -0.21992138996606   -0.07344669111240    3.08162918266767
C         0.14881379910123   -1.45633433082938    3.17168342171269
C         1.16307214272609   -1.71062847133300    2.17979983807603
C         2.02201243639338   -2.92618078922185    2.10934646886378
C         1.37515099228633   -0.50922153436249    1.44592723119006
C         0.51109939531392    0.51325162332466    1.99568372598863
C         0.63665557011200    1.94652582106696    1.69625799292100
C         0.81350413756085    2.86272157523612    2.73281058405258
C         0.96770919198743    4.20720669186318    2.46132463545282
C         0.95302877831773    4.68027288711666    1.15014402131172
C         1.11999058757310    6.11297175264876    0.86507945990385
C         1.91324254399451    6.53573072789153   -0.19985479551934
C         2.07245718234998    7.88298336745060   -0.46740030016689
C         1.43710826741034    8.82999476280205    0.31957866687578
C         0.64515671687246    8.42085164080927    1.38009224781694
C         0.49059757276721    7.07421069288267    1.65366617195560
C         0.78128889524883    3.76069890792003    0.11614081632829
C         0.62803346778323    2.41509328486169    0.38169344178023
C         2.43289022837634   -0.28673003476287    0.42147172401106
C        -0.23914018831560   -2.38941348761666    4.26828075341387
H        -0.60869394709146    0.80179957928810    4.96820896049404
H        -2.00717765222056    0.01699241477421    4.25154428101068
H        -1.46120595227590    1.58020215712517    3.62631726487315
H         2.90097639587091   -2.76688597365125    2.73596488912900
H         2.35691261061964   -3.11628046844081    1.09339173694344
H         1.50120098109932   -3.80627179879631    2.47529187621612
H         0.86333897219752    2.51744239610279    3.75324466673842
H         1.12624724746189    4.89887293976496    3.27500185632894
H         2.42569288960771    5.80446915664828   -0.80801175278602
H         2.69574533151160    8.19684426838704   -1.29227028675327
H         1.55964089795299    9.88215037831746    0.10784028119942
H         0.14607879999665    9.15543766573120    1.99545705994667
H        -0.13947141630992    6.76465660249293    2.47478699670155
H         0.74833151897687    4.10782470472251   -0.90564126820367
H         0.46939333767742    1.72251799930856   -0.43147992542050
H         2.04712187833108   -0.47237173888862   -0.58088711737620
H         2.77440701370922    0.74582090021379    0.45883283442693
H         3.27335005763681   -0.95468912913999    0.59134397721104
H        -1.22876985783471   -2.15731669114714    4.65190148877874
H        -0.22104962254808   -3.42175561567202    3.92791540696503
H         0.47363662784871   -2.29276222587476    5.08807304373526
C         4.98892278540644   -5.09768441994955   -5.55113114211017
O         5.14134175973747   -5.60555301652081   -4.24202434836603
C         4.11255708187979   -5.47204949299286   -3.36304909661522
C         2.89462464441486   -4.85742901966576   -3.63980054059326
C         1.91663941764888   -4.78798285205477   -2.66404423396931
C         2.11540687260476   -5.33493243484536   -1.40047025924310
C         1.05422164427216   -5.29154070812660   -0.38534160545360
C         0.81720681022575   -6.39254069373673    0.44020745775927
C        -0.19463268353763   -6.36544848593104    1.38387910018445
C        -0.99690986925948   -5.24760784322229    1.51982714933850
C        -0.76134646048505   -4.13661277129449    0.70856936504342
N        -1.55632183693525   -2.98927802846865    0.83570447493122
C        -2.84510047550690   -3.09960178712986    0.82799525386153
C        -3.60572032842861   -1.89365559884062    0.95020846129994
C        -5.01396602690001   -1.87872670092427    0.90291908842956
C        -5.66941995868375   -0.68416370089390    0.98965075287614
C        -4.92120523428897    0.50940915756018    1.07133311156890
C        -5.53393306732291    1.77712358349816    1.11339188804435
C        -4.77996328649531    2.91930449263515    1.14461706069025
C        -3.37919900255271    2.83457131612620    1.12232495397746
C        -2.75290974848305    1.61764534920095    1.10135221973269
C        -3.49615274547982    0.42355745528111    1.09196998657283
N        -2.86993293669612   -0.78006186867504    1.08396099994874
C         0.26365008776289   -4.15663805149951   -0.23199267852531
C         3.34172352918838   -5.94526583624733   -1.12960279227994
C         4.32616542047725   -6.00747700988311   -2.08936128964936
H         5.92135351483837   -5.32758537198414   -6.06362586511412
H         4.83592197858109   -4.01451579191594   -5.54286895403160
H         4.15894176649189   -5.58360722749043   -6.07287810178088
H         2.69551258646530   -4.43488804028971   -4.61182831088163
H         0.97259481838407   -4.32227091853227   -2.90380134016411
H         1.41899910789815   -7.28030172243805    0.32580689149500
H        -0.36548735108089   -7.22435494266737    2.01442436946801
H        -1.78091940259216   -5.21693850879733    2.26083047720774
H        -3.33422661888509   -4.05568116877453    0.68097010389823
H        -5.54356266008070   -2.81183161702855    0.80279245211019
H        -6.74730474576880   -0.63414418069911    0.97792903972820
H        -6.61196653909093    1.82679693905465    1.10734144076187
H        -5.25585101995294    3.88703474287334    1.17077201409259
H        -2.78817648370480    3.73722626506721    1.11564546102999
H        -1.67953141398135    1.55865494940257    1.04820128198332
H         0.42297729341850   -3.28503211790455   -0.84852057079793
H         3.53349080867369   -6.35629031143477   -0.14987121011032
H         5.27733395080502   -6.47274230741600   -1.88423963640513
Cl       -0.78173295357177   -0.75173114053925   -1.16583967370051
