70
 energy: -122.620582540844 gnorm: 0.000198695348 xtb: 6.4.1 (afa7bdf)
Ir       -0.37407695451374   -1.18063839056919    1.51387772658657
C        -1.88804034971991    0.20508421932294    4.21059697450827
C        -0.62889611839695   -0.15069047832669    3.50078782895190
C         0.12606804281522   -1.34364032764520    3.72123155818736
C        -0.19404525513829   -2.36223092770236    4.75838935641367
C         1.34346082590221   -1.24974013237062    2.95211620337070
C         2.51291737044554   -2.17019148650946    3.04435848957623
C         1.35831417860566    0.02039454189736    2.29522059398166
C         2.51948473930257    0.60373403733054    1.57590750800961
C         0.10992636363443    0.68281686955373    2.58454266085025
C        -0.19178344927379    2.08358700624666    2.24818524038207
C        -0.44420818150637    3.00072851158561    3.26685623865778
C        -0.67825625159215    4.32266535357860    2.93594036803470
F        -0.91440934321240    5.20416009411541    3.92650166614833
C        -0.68219895604052    4.77528271720797    1.62801204125296
C        -0.43340643685831    3.83826276173709    0.63978301063535
F        -0.44338944126234    4.23912058647176   -0.64727439375859
C        -0.18807647759452    2.50707344100121    0.92013986485894
H        -2.36240272921566    1.07267116647332    3.76192072298272
H        -1.65474095871091    0.43764571373017    5.25027064067508
H        -2.58655178950417   -0.62839112026475    4.21247803606973
H         0.46269193152174   -3.22183805099476    4.68087341366405
H        -0.05042201962522   -1.91152941508736    5.74123286205445
H        -1.23044081860977   -2.68407125155826    4.69431443899773
H         3.12170897136331   -1.88767759192099    3.90379076486957
H         2.19635329682057   -3.20157845508880    3.17149207093630
H         3.12676301004686   -2.10036261287946    2.15106847633956
H         2.74073855810297    0.04197548753437    0.66954882873602
H         2.32350191397474    1.63539588226820    1.29823348922493
H         3.39855980360720    0.56316139523840    2.21786333419718
H        -0.42985408911662    2.70654092517870    4.30311774756023
H        -0.86546128541363    5.80971393618144    1.39012343856202
H        -0.00503920509569    1.80954212172201    0.11707851555012
C        -4.59121154568500    2.43166457371294    0.42079228893419
O        -4.93239974531665    1.23759461601535   -0.26713568823647
C        -4.16146951322004    0.16673938976982   -0.16327135572423
C        -3.00535281392069    0.06613960385330    0.61600778331119
N        -2.27121192653364   -1.03995445569810    0.67667690233594
C        -2.63936783474153   -2.12706277922425   -0.04006585287549
C        -1.73347634327853   -3.22921243826810    0.06100791345330
N        -0.70026767402946   -3.07582692915593    0.82417791146754
C         0.27724832074244   -4.08680751791122    0.88161681143513
C         0.46271058558767   -4.81863018481168    2.05915470565628
C         1.41772512461084   -5.80731329979737    2.10859446733288
C         2.22851088752164   -6.08893046447749    1.00065567774494
C         3.25606218285105   -7.10703854050339    0.98810262963899
C         3.50836735803577   -7.93272141833849    2.20236683947558
C         3.96583712176911   -7.27923592226476   -0.15154853175685
C         3.73984208887211   -6.50119947604994   -1.34965688995699
O         4.34699023415480   -6.62334220544626   -2.39166727570413
O         2.75654487751254   -5.55094516973679   -1.29597814508052
C         2.02968126724744   -5.34509501807605   -0.17556347630457
C         1.04931190138265   -4.35726854036735   -0.23711634563303
C        -3.79045265096684   -2.12341352368311   -0.83492027761249
C        -4.54870392052466   -0.97897400097569   -0.89809652403686
Br       -6.11538186681249   -0.87771123271358   -1.96436963551861
H        -3.60970242775786    2.79477319402518    0.10888736337113
H        -4.61385048915133    2.27812479840971    1.50136141329277
H        -5.35481817643798    3.15300980193272    0.13854505751349
H        -2.66079640389434    0.90672466367347    1.19836156494134
H        -1.90310247803353   -4.14577418525657   -0.49200701412610
H        -0.17376605994641   -4.62398655081474    2.90641309823727
H         1.54498338806821   -6.37890482897915    3.01311302174648
H         2.60855219134555   -8.47915118420487    2.47926686595601
H         4.30558589669704   -8.64601624042579    2.01623033686183
H         3.79368718209119   -7.29815135697951    3.03914139215146
H         4.74619228984773   -8.01933151466709   -0.22917610417037
H         0.92381400821276   -3.79512480978464   -1.14809270248847
H        -4.06419067951165   -3.00088157673347   -1.39821027879946
Cl        0.34029974743491   -0.77077180345979   -0.71698666386710
