70
 energy: -102.053151338487 gnorm: 0.000668240125 xtb: 6.4.1 (afa7bdf)
Ir       -0.54279834146858   -0.59232072021154    0.29024182220774
C        -1.39449671556479    2.35546900618706    1.07678238894702
C        -0.15149672935691    1.49324015150349    1.12568715898818
C         0.10155841725330    0.36892792380163    2.04082700599325
C        -0.66569319028951    0.15384384501875    3.31496547459503
C         1.60000405452010    0.28968185324622    2.16314236870069
C         2.31919106200516   -0.77736579005794    2.89341668040305
C         2.15606460240960    1.33937707121201    1.49037436953931
C         3.60474191816260    1.65018847448830    1.34629232718560
C         1.11040132886614    2.06735056216038    0.83388138498014
C         1.34514321464728    3.27236305193360    0.01933687952790
H        -1.17817966847537    3.32756221737884    1.51750659523090
H        -2.20033294051527    1.90256631931460    1.64203159253799
H        -1.73267448467343    2.52007960266092    0.05499152678944
H        -1.70232776720887    0.45543149648804    3.22228628369442
H        -0.62145258331139   -0.88728308713894    3.62563092377859
H        -0.20253766109700    0.75065482692096    4.10113960771085
H         1.64264991928526   -1.39679541253293    3.47158083419135
H         2.85479094509977   -1.40848060582779    2.18468044280647
H         3.06332050985426   -0.34117830826564    3.55818108682060
H         3.77601356998495    2.72351369925755    1.38302153424356
H         3.96848656757275    1.27951081537740    0.38779341915472
H         4.18081189764369    1.17232881181035    2.13313549231679
H         0.45009746876360    3.59089664847148   -0.50511628919836
H         2.14131911051768    3.08009075381648   -0.69968922546659
H         1.69094773423593    4.08516880481243    0.66044129087524
C         0.91562007934623   -4.92475066799659    4.08115850706302
C         1.61605058703880   -5.32575816482604    3.03655353588292
C         1.45149132301170   -4.88405544810858    1.61310836355428
C         0.31537877579728   -3.89402259307942    1.37715330344778
C         0.21369827666230   -3.51892310976429   -0.10582664927518
N        -0.72314421040795   -2.44866950772311   -0.26391291219121
C        -1.69025298746759   -2.49313561830696   -1.11171377849608
C        -2.72157223286267   -1.48346926614509   -1.03868304811039
C        -3.70247359184470   -1.35772685182062   -2.01875963756032
C        -4.73534350518658   -0.45830891124925   -1.81820997459545
C        -4.82108512940613    0.17868273859019   -0.59234121041308
C        -3.82717874266281   -0.01925223849821    0.36935964188008
C        -4.09350404546885    0.42329161266586    1.74518698431943
C        -4.70763610044624    1.64633622741963    2.02358201698177
C        -5.07199010156869    1.96781421332821    3.31576045142311
C        -4.84848031733818    1.05977130047200    4.34986548643064
C        -5.24570464283019    1.35408054309076    5.75112131283378
O        -5.04716918044914    0.60463699428832    6.68195707493872
O        -5.85038858542262    2.53811975217308    5.87435369065298
C        -6.26963304913725    2.91332322796211    7.18312261208985
C        -4.24105618898929   -0.16363087116044    4.07525316181938
C        -3.85865985842762   -0.47737222168829    2.78561158634934
N        -2.73242672691100   -0.74573784767799    0.10685073284500
H         0.11589852581617   -4.20926053256229    4.00876639623140
H         1.11516979434058   -5.30914933808932    5.06699820704865
H         2.40652294791029   -6.05336683496555    3.17499023675397
H         1.29384376029815   -5.77697140645277    1.00001284989881
H         2.39600526109116   -4.44095148800509    1.28401712838021
H        -0.62791531737089   -4.33263572630056    1.70463454239365
H         0.49553150532373   -2.97845071874866    1.94437897602781
H         1.19179651776346   -3.15365022628356   -0.44096621617524
H        -0.07397989054519   -4.38349343801983   -0.71308033913982
H        -1.80663466576205   -3.31360221699626   -1.81473879433659
H        -3.63760857919767   -1.94857890226018   -2.91800943927270
H        -5.48747389239357   -0.30217357242638   -2.57532092110234
H        -5.67291467284180    0.79276602415058   -0.35071144024671
H        -4.87728357778784    2.35849249314280    1.23063709964316
H        -5.53702259391434    2.91574165484643    3.53126101630798
H        -5.40128966817499    3.06106119253907    7.82781038517880
H        -6.82383703686273    3.84048254216788    7.06686044028017
H        -6.90127830685445    2.13515517319730    7.61536270844211
H        -4.07952061881280   -0.85499825845901    4.88752532293981
H        -3.39538035505636   -1.42689941983222    2.56881051623632
Cl        1.51521278128865   -0.63756430591723   -0.75371090406314
