64
 energy: -100.063635910565 gnorm: 0.000562892363 xtb: 6.4.1 (afa7bdf)
Ir       -0.85120351737331   -0.42117166293208    1.47394965076553
C        -2.13498574057275    1.89012051253920    3.86491640337309
C        -1.06823797122535    1.01742536429548    3.30685800168250
C        -0.93665265133067   -0.37538265711265    3.70558753351117
C        -1.86154169202699   -1.07247137453350    4.64235348443344
C         0.35880492148435   -0.83015082491574    3.32141712485779
C         1.01911722237176   -2.07284532639243    3.80454116600691
C         0.95929486296160    0.20877988307183    2.52669841741589
C         2.37566028131479    0.22782545174166    2.06381650374011
C         0.08808792799642    1.38063450475393    2.57653423593560
C         0.54617796833572    2.74547699018990    2.14581941994211
C        -0.39498194966737    3.48333819708744    1.18872755037551
C         0.23905441105089    4.80367597208898    0.76088400841955
C         0.53030807211411    5.67713589737717    1.97862398828432
C         1.44085633850189    4.94237061909807    2.95912819223922
C         0.81627030934699    3.61673209317879    3.38564726395525
H        -3.10221546626215    1.39502316744431    3.85231600777793
H        -2.21797365824713    2.83217288736816    3.33684873822229
H        -1.88455317086626    2.09347444074991    4.90750515621443
H        -1.74271496376947   -2.15045948439264    4.58529015807118
H        -1.63420657518342   -0.75939653321994    5.66203613161801
H        -2.89803694753670   -0.81811289516600    4.43824442166740
H         0.30981746787102   -2.88765758068651    3.91976571946895
H         1.82065218141051   -2.39044908467308    3.14470920848623
H         1.45017073825158   -1.86345442299575    4.78458518179941
H         2.78458462492766   -0.77633389970168    2.00987626088265
H         2.46240516718712    0.69562750224547    1.08640922276484
H         2.97232740009317    0.80534645106554    2.77051826523783
H         1.49577590141556    2.62103221617115    1.61750961645727
H        -1.35191124966719    3.69220316976402    1.66636879729912
H        -0.58006697849547    2.86014086531778    0.31364976258054
H        -0.43379522308657    5.32813913604938    0.07981352344508
H         1.16909313894068    4.60835860552190    0.22164002983839
H        -0.40923553990880    5.93300636951386    2.47401775918791
H         1.00249090610820    6.60924321399525    1.66228120358420
H         1.61476986930344    5.56338207910483    3.84039021596657
H         2.40830792925077    4.75902373772244    2.48591537989110
H        -0.11779802620611    3.81414902219297    3.90976328580562
H         1.48640832537763    3.09260666005812    4.06928531811366
F        -4.29413678275715   -3.80657591546166   -0.67915105058157
C        -4.21092728920662   -2.52989221347127   -0.29565964267161
C        -5.28130543910714   -1.67294369502996   -0.46855445274474
C        -5.10421390624874   -0.34943605660337   -0.09614635914320
C        -3.89058073210835    0.04063787134084    0.45860028356817
Br       -3.64774376594421    1.84795740824005    0.88173238223197
N        -2.88264251559460   -0.79373907110798    0.69010964095911
C        -3.01340842557644   -2.07678107273096    0.27409275192291
C        -1.83375258812572   -2.87588261452748    0.35799570402882
N        -0.74290139225090   -2.30341993479742    0.76295320362150
C         0.45130358774525   -3.03584229576626    0.74424816867748
C         0.51177025389897   -4.33349857726942    1.25715585011834
C         1.69600889824128   -5.04231676077870    1.20829642955598
C         2.81731609522343   -4.46202764277982    0.63062834865073
Br        4.45831597486916   -5.45186726845642    0.55271156946566
C         2.76832203003799   -3.17480215397460    0.11128286957979
C         1.58881186430869   -2.45998474585104    0.17647964969136
H        -6.20605531718819   -2.02598601400374   -0.89683935888624
H        -5.88954203592788    0.37727836847383   -0.23000317450208
H        -1.84795777013939   -3.89978207616589    0.00159236676256
H        -0.35820972359539   -4.77540299588774    1.71738379300353
H         1.75007696949099   -6.04051458423843    1.61204446706966
H         3.64442865241812   -2.73862372018610   -0.34102677026612
H         1.52138023761813   -1.46898276132947   -0.24413547804413
Cl       -0.46124852432327    0.35815925926293   -0.73964550137084
