62
 energy: -104.176107198911 gnorm: 0.000235509055 xtb: 6.4.1 (afa7bdf)
Ir       -0.57379171002311   -1.72665559512982    0.90365221225915
C        -1.96606721015273    0.58109070783351    3.06773313617568
C        -0.78559996156086   -0.17576823696434    2.56649550366790
C        -0.31985006410301   -1.42503810855247    3.11864022855584
C        -0.93811717665281   -2.12202749690597    4.28208704912781
C         0.98701289547920   -1.68944698535126    2.57104037808963
C         1.97784423322662   -2.67668505381996    3.08237240311276
C         1.26305560422872   -0.68739412644448    1.59822099485945
C         2.55756371290983   -0.48763765287326    0.89178533713862
C         0.15836033356458    0.25930394794991    1.59853035089444
C         0.17619448460264    1.56122916931385    0.87518026957987
H        -1.69117617390567    1.06480797882453    4.00621039085460
H        -2.80957177796302   -0.07444515601629    3.27100867357601
H        -2.27160441428070    1.35939811876341    2.37349216963207
H        -2.01948780778629   -2.02130283790087    4.27030403520493
H        -0.68626035858645   -3.17827957797830    4.29208186522353
H        -0.56737775184623   -1.67308319840216    5.20456325905973
H         1.53313270471461   -3.31595868201540    3.83766360566418
H         2.38212244532408   -3.29272486499008    2.28178194752822
H         2.80646357050760   -2.13312755425492    3.53643254394196
H         2.39176044071706   -0.16298673951726   -0.13257312346892
H         3.14052288948903   -1.40352782649768    0.88036664053243
H         3.12901183218650    0.28787308908728    1.40272062154497
H        -0.80981794167332    2.01534001517760    0.83833875023069
H         0.53467994738773    1.42656747573826   -0.14279203078868
H         0.85476720156844    2.24642168923322    1.38396174354646
C         4.32548681371463   -7.50447317982864   -0.96480863620672
O         3.61217396022687   -7.18189702212419    0.21322755301287
C         2.59078283976996   -6.30802510685455    0.14161905177493
C         2.17523189429184   -5.64708420201748   -1.00724407327335
C         1.09053746023589   -4.78866474672067   -0.98001511854926
C         0.43887765531819   -4.53107409817857    0.22108828119232
N        -0.65560368415414   -3.65926176264101    0.24645674637042
C        -1.67442793557085   -3.93302197456202   -0.51705675740951
C        -2.73270051082803   -2.97999728425155   -0.56558729114082
C        -3.89456180053024   -3.12302509106067   -1.33419607759383
C        -4.83803693447648   -2.12139103635264   -1.32284584728623
C        -4.58493724839736   -0.98778092857493   -0.53935053688477
C        -5.58999820367051    0.13137756992979   -0.51563846899879
F        -6.80285608676179   -0.28957848970337   -0.11736487326962
F        -5.24209001742217    1.12849137892198    0.30869225657827
F        -5.76207285431181    0.67813431452730   -1.73127995622486
C        -3.41591452433835   -0.90392915548998    0.19537266900223
N        -2.50947884074731   -1.87635228983549    0.19882264400700
C         0.85603254958632   -5.17012548469483    1.39503776715535
C         1.89951865713763   -6.07670532191948    1.36444004719562
O         2.33951455426890   -6.79683056236539    2.41830757366823
C         1.65272932109014   -6.69641770420924    3.65079713926390
H         5.08230394557606   -8.22297759483204   -0.65682919316036
H         3.67105565747748   -7.96184941872072   -1.71189768851444
H         4.81262834229078   -6.62232393537805   -1.38909384102488
H         2.68651138562810   -5.80742973078738   -1.94165290555870
H         0.78198077126714   -4.27286469384309   -1.87487215248745
H        -1.71568882866459   -4.84836123922011   -1.09462322643796
H        -4.02916730517939   -4.00824759514540   -1.93392383574385
H        -5.74585382489543   -2.19285357374179   -1.90129991874995
H        -3.20936684543551   -0.03158901954674    0.79744309362742
H         0.30526205890540   -4.98583317151521    2.30125177615368
H         0.59987700502961   -6.96911496342180    3.54140314316837
H         1.73978450494164   -5.69165164242140    4.07107631701920
H         2.14402860137187   -7.40641039963970    4.31269952515532
Cl       -0.09600148012939   -1.21788034210409   -1.37965614155489
