74
 energy: -106.612442096415 gnorm: 0.000406251259 xtb: 6.4.1 (afa7bdf)
Ir       -0.68776856059297   -0.41035598244583    1.40119727646702
C        -1.22595039158941    1.99330396163000    3.87905564480015
C        -0.40794542833462    0.92212370863663    3.24360297664922
C        -0.51390094844353   -0.47934181166881    3.60889579642125
C        -1.46277230289376   -1.01436103009544    4.62764609994780
C         0.63259826998959   -1.15869387502554    3.09107173063174
C         1.06562217651709   -2.53594342113870    3.45087460125354
C         1.34166215717400   -0.23647705409303    2.26362618410469
C         2.67132077830506   -0.45535952703240    1.62858575340217
C         0.71741666900658    1.06975982754218    2.40307876207556
C         1.33243407993004    2.33023405553989    1.89327582165757
H        -0.94093612381832    2.06473443175039    4.92966369293671
H        -2.28666343559191    1.76258282418389    3.83563665134970
H        -1.05222634024059    2.95686755900604    3.41274002230147
H        -2.43207944192419   -0.53018532974173    4.54834687958036
H        -1.59456273494816   -2.08711778791185    4.51675451572322
H        -1.06850152351848   -0.82217730783125    5.62617839623681
H         0.21552123433237   -3.18222670369062    3.65109685359731
H         1.66804535742518   -2.98395415166467    2.66547130513830
H         1.67108588979871   -2.48220154628979    4.35663924462527
H         2.72911417889888    0.06867242853913    0.67715196501741
H         2.86138474084289   -1.51305863587878    1.46887460140736
H         3.45212071389728   -0.06035049831617    2.27960609376345
H         0.73236385844950    3.19800240401985    2.14681050292393
H         1.45237103702122    2.29092713331526    0.81210372971402
H         2.32127013828156    2.45103691349723    2.33532727186753
C         2.44495619575268   -7.52822618783356    0.62913260041474
O         2.61068350563345   -6.23091606425878    0.09159094499153
C         1.63591541707160   -5.31640070733597    0.27827383174109
C         0.45987544520641   -5.52661038345748    0.98508569426762
C        -0.48327990505263   -4.52085086317952    1.11478466664649
C        -0.24569436176646   -3.26767543367246    0.56072317067883
N        -1.17458590187709   -2.23409130987275    0.70754859485182
C        -2.43171754996581   -2.46566706983405    0.53022846901862
C        -3.37283875647953   -1.40560385815454    0.75272813918393
C        -4.73627188611659   -1.64851548670638    0.70972455064872
C        -5.59714115977453   -0.59800757880582    1.00838979663992
C        -5.06702783114945    0.64178982630939    1.25236988972582
C        -3.66676267677017    0.86857421543123    1.18750103124831
N        -3.16747804619830    2.11601667070100    1.34105432398274
C        -3.99084632186669    3.22256994381400    1.80261343613849
C        -4.61935317616001    3.98587091872572    0.63461602287844
C        -3.51224059116639    4.49054114788346   -0.28871105038969
C        -2.61853169549056    3.32520359133661   -0.70561292523665
C        -2.06788893108070    2.60493768472780    0.52852573554669
N        -2.83282285475829   -0.18589028119446    1.01839552241015
C         0.94282691077768   -3.03402554887027   -0.14053797800062
C         1.86976873907139   -4.04304596631406   -0.30962319041880
O         3.02424487835107   -3.92762046568337   -1.00680150928680
C         3.27440957155313   -2.72440114108622   -1.70609804886178
H         2.37341423012169   -7.49981970015840    1.72001504752379
H         1.56331406536561   -8.02243996054170    0.21186531650318
H         3.33868163157904   -8.07694383877893    0.33901139189697
H         0.26445200595210   -6.48292107860220    1.44062177885296
H        -1.38338806002685   -4.70395361296286    1.68003645372810
H        -2.78580343857332   -3.43574028576487    0.19910337949515
H        -5.10439849813399   -2.63153351822082    0.47163431602064
H        -6.66494941268526   -0.74877592424594    1.02320649588913
H        -5.73075932493191    1.46602421668527    1.44224438547110
H        -3.32340804418830    3.90140066184299    2.34151504794422
H        -4.74242621335709    2.87217426878819    2.50847706379494
H        -5.28630878061316    3.32958494594042    0.07257877618688
H        -5.20688063815257    4.82098868902115    1.01753689775648
H        -3.94467744844555    4.96697932540912   -1.16980930662978
H        -2.91346988693212    5.24003602199899    0.23384359280422
H        -3.18934326625065    2.61666413449608   -1.30966654930331
H        -1.78382983504503    3.68150399381718   -1.30928864453807
H        -1.43278692128182    1.78003477535699    0.21831781500918
H        -1.48065960453227    3.30587954772415    1.12283408827565
H         1.09139457822544   -2.06226017171339   -0.57973935594249
H         2.47698869450638   -2.50685882491732   -2.42162582182256
H         4.20820637818195   -2.88892154694403   -2.23966390470792
H         3.38956282208402   -1.88081384081920   -1.02107152942643
Cl       -0.13961209858717    0.10525148505068   -0.89476882717875
