79
 energy: -125.606248358184 gnorm: 0.000215220366 xtb: 6.4.1 (afa7bdf)
Ir       -0.21840776311893   -0.76408076691859    1.71103207612203
C        -1.93918131187714    0.86221824757557    4.18216671119000
C        -0.66195367861843    0.32472623699844    3.63585349320253
C        -0.08428721341022   -0.95026790632277    3.96050115324835
C         1.26527546724237   -0.96471492294644    3.45236246692451
C         2.34290566087120   -1.93911889881715    3.78320939997102
C         1.48752597433975    0.25579531943816    2.75801257031423
C         0.28279583624191    1.05502294057007    2.84912286164586
C         0.20656932505966    2.48810204545709    2.50373616726575
C         0.90114804038892    3.39805970569859    3.29791427939857
C         0.86078836502573    4.74816167765205    3.01347812457617
C         0.14050007392985    5.22754536379857    1.92016755881236
C         0.12778714140710    6.66316222398345    1.59740367651378
C         0.20741396223640    7.09055503872660    0.27322106906154
C         0.20915650492577    8.43899170174922   -0.03350833140267
C         0.12666010287676    9.38359825799836    0.97653739210334
C         0.04275534830176    8.97037729602288    2.29618952450559
C         0.04593484459541    7.62230114753394    2.60509949446981
C        -0.54879553992674    4.31054734555248    1.12904859735480
C        -0.52218044323989    2.95982464186532    1.41855793806833
C         2.78973453781505    0.72060848338494    2.20838915250131
C        -0.68393786787159   -1.91953289013384    4.92201669713348
H        -1.82332081737400    1.00781191343926    5.25669908485046
H        -2.76792047868762    0.17391871299828    4.03160379386089
H        -2.16967506060624    1.82505460076231    3.73296848176543
H         3.03656051948129   -1.46302758772135    4.47739952778959
H         2.90524749220381   -2.21943268044753    2.89519969134103
H         1.95199637859598   -2.83601476135339    4.25079194149853
H         1.47314289898455    3.04183302685588    4.14143247722182
H         1.41647754836568    5.43742194581247    3.63107510075831
H         0.29274085574635    6.36199595232766   -0.51988050864761
H         0.27859218803422    8.75493442993147   -1.06448947533618
H         0.12814536979212   10.43672661641258    0.73621996816659
H        -0.02601703955369    9.70296751318690    3.08733652344267
H        -0.03548098136672    7.31059606389006    3.63621049453388
H        -1.11818989539836    4.66018726601012    0.28130798731041
H        -1.03545475354247    2.26116090662888    0.77517455767980
H         3.29263334392958   -0.07572047228444    1.66449510870498
H         2.64264333844376    1.56492231051182    1.54011632690834
H         3.43761566927254    1.03172381371581    3.02891307577483
H        -1.75238083349686   -2.02632487629702    4.75410597379831
H        -0.21449937475638   -2.89574043531506    4.85025177970249
H        -0.53901437943212   -1.54755063971880    5.93714347859011
C         3.32472449670349   -6.68342056732318    3.44567134580022
O         2.28706628192677   -5.73197115699575    3.28645401542076
C         2.13793364418635   -5.11776359407759    2.09484441970307
C         2.95090192109513   -5.31471630846385    0.97849320635976
C         2.68889334855140   -4.63307248810010   -0.19825296789802
C         1.62595512534809   -3.75666158124608   -0.27089475706872
F         1.36982642204902   -3.11767311705704   -1.43373081386851
C         0.81516116667109   -3.51524130453490    0.84277626371311
N        -0.24925254194676   -2.60119168579190    0.79602182639183
C        -1.19558791347343   -2.77227830417920   -0.07295398491587
C        -2.23661236249252   -1.79790014683749   -0.09982272234567
C        -3.33847176023399   -1.83682736766810   -0.96196751917034
C        -4.28234383307770   -0.84123157146714   -0.89702593340428
C        -4.12246830410685    0.19475083801181    0.04099283063277
C        -5.09362969181049    1.24941398479017    0.15275000771565
C        -5.14904016374283    2.37235446914023    0.95466401837154
C        -6.34056630486003    3.04035068081214    0.61972211206382
C        -6.93097417319234    2.28688673542760   -0.35679467722567
O        -6.19155772445554    1.21359674023800   -0.64249852763501
C        -2.99230394839651    0.16201466738618    0.86632376488708
N        -2.07950143701525   -0.79469244472406    0.80378142071862
C         1.07771488619655   -4.21241881430625    2.01203593850184
H         3.23323736206792   -7.04109858417292    4.46893502210637
H         4.30713808509594   -6.22560496718795    3.30592725320355
H         3.20384106004123   -7.52125891027910    2.75452461261904
H         3.78258726063751   -5.99820903159259    1.00748458106290
H         3.30314707296438   -4.78433114362945   -1.07143440065044
H        -1.21072878213418   -3.62423598940176   -0.74325134762194
H        -3.42459962185373   -2.64334890784453   -1.67207005662289
H        -5.13983585920963   -0.84001248307824   -1.55059042330729
H        -4.42969512513465    2.68539190075715    1.68203000659653
H        -6.71108678913713    3.95144467658158    1.04133541598978
H        -7.84559454813184    2.41544230187945   -0.90156564736050
H        -2.84086095048257    0.93790634705955    1.60011104192149
H         0.43164931924185   -4.08150520936915    2.86327053242254
Cl        0.51334602605805    0.02468642885091   -0.41154131964554
