62
 energy: -109.091012051281 gnorm: 0.000317605423 xtb: 6.4.1 (afa7bdf)
Ir       -0.41585971543772   -0.76245131619063    1.57102649858763
C        -2.06136597912059    0.93922455498386    4.02192949913356
C        -0.78450826846709    0.38065124620635    3.49949978229897
C        -0.26887783801604   -0.92349795630615    3.79897553407461
C        -0.89108074028699   -1.89496843240599    4.74098716112150
C         1.06946300374557   -1.00572346004079    3.26865564506556
C         2.04954657376425   -2.07678821458861    3.59837499193746
C         1.34006078791926    0.19732612407392    2.55845067644075
C         2.65431508885853    0.61923910581009    2.00304030807906
C         0.17363381309910    1.06164692303990    2.68809926795399
C         0.15914269527070    2.49766852136422    2.35593037907707
C         0.02069658371232    3.42502936998339    3.38761296009242
C         0.06115157589131    4.77361378692128    3.08733447899633
F        -0.06660809963802    5.66371227850461    4.09218737644542
C         0.22801870130926    5.24535739914513    1.79748004030129
C         0.35598097507629    4.29842942452474    0.79608931901670
F         0.51426691139859    4.72207260594197   -0.47421053720572
C         0.32443307844620    2.93951476955267    1.04625051445430
H        -2.28732052186276    1.89536422021464    3.55850575094022
H        -1.96415743364661    1.09155383493344    5.09711130809559
H        -2.88914937563752    0.25090067427700    3.86556959531310
H        -0.55422233805125   -2.90764929087987    4.53995043548558
H        -0.59857746412559   -1.63881732987399    5.76004526466492
H        -1.97514666035492   -1.86005237031432    4.68282319924860
H         2.47113792171840   -1.86693272539393    4.58206279204019
H         1.57496927795100   -3.05341424127056    3.63664345196122
H         2.86232121379384   -2.10798785537444    2.87992497202473
H         3.24079519981491   -0.23786421754517    1.68557927678271
H         2.52548136856706    1.29105260198922    1.15955311006074
H         3.21186449880859    1.14858461420096    2.77648685863508
H        -0.09003237769920    3.11199013918962    4.41287413997812
H         0.26040186854276    6.30042874602234    1.58288194295971
H         0.41031954830132    2.23801381996567    0.23077186255412
C        -4.93005975208026    2.47658038198709    0.54513632977091
O        -5.24765818067645    1.20718509074238   -0.00825792045099
C        -4.38956558903051    0.20442106992770    0.08869667515061
C        -3.15169089976192    0.24923502591755    0.73749100109253
N        -2.33538323317289   -0.79714858360020    0.80260607079845
C        -2.68709566044088   -1.96142802986665    0.21016575841840
C        -1.68368349250429   -2.97752553474582    0.27906449057513
N        -0.56655419315788   -2.66064095927652    0.85332729585368
C         0.47389384495271   -3.59860377250363    0.92522588139052
C         0.22981997328427   -4.90257656514160    1.35975257430101
C         1.26307097485471   -5.81849835082585    1.41452117280255
C         2.52898835241522   -5.42270529013146    1.01370189448522
F         3.53528267377648   -6.31686409737999    1.05569778266963
C         2.79269215507824   -4.13425211376359    0.57588174909247
C         1.76073257543686   -3.21677660115269    0.54424392228158
C        -3.91267962253035   -2.10179482195674   -0.44925580142787
C        -4.76341992313295   -1.02361744081630   -0.50639308245167
Br       -6.44574123470381   -1.12711254996066   -1.38064281863958
H        -4.02650362599079    2.88543267792078    0.08942856995112
H        -5.77951525652263    3.11268045270356    0.30671814072877
H        -4.81475989587513    2.41003866884299    1.62847123428630
H        -2.80658885583077    1.15810450527679    1.20566604819211
H        -1.83696420039908   -3.94775807905006   -0.17851093266739
H        -0.76082669365323   -5.18832348571840    1.67693795541969
H         1.09965002276524   -6.82773924828581    1.75630188421996
H         3.79019826492495   -3.86895817042961    0.26453852326155
H         1.92624160432492   -2.21203183886693    0.18648368715383
H        -4.17551046895838   -3.03846442827224   -0.91351253402882
Cl        0.19091046290676   -0.15274526201002   -0.65426740881114
