73
 energy: -101.465068502659 gnorm: 0.000545973332 xtb: 6.4.1 (afa7bdf)
Ir       -0.83548851410711   -0.75065203770626    1.40785774440323
C        -2.08009920591011    1.57772334052332    3.71662461574226
C        -1.00634708526758    0.66363002979491    3.22710704960768
C        -0.94965987455851   -0.73125179391103    3.62185683874965
C        -1.93115000168851   -1.39167279907271    4.53071305043400
C         0.34300999749085   -1.23900798539807    3.27762885994921
C         0.91994789879170   -2.52762277003200    3.75129220857465
C         1.01375325149178   -0.22993250542456    2.52293419402736
C         2.44180623180225   -0.27821866937234    2.08975330063761
C         0.19348825697263    0.97592808375997    2.54262381886264
C         0.74129690185424    2.32074816399797    2.14870579025224
C        -0.11651452245479    3.13880141223474    1.17823475877311
C         0.61770767085578    4.42314695668012    0.80183260735618
C         0.92271447200085    5.25156136816537    2.04746122318204
C         1.74956147530408    4.43928172666353    3.04066568722043
C         1.02839493015887    3.14723877954876    3.41448988115598
H        -3.06831428881885    1.16232842989044    3.53060293112645
H        -2.02501362459912    2.55758901843617    3.25758506019053
H        -1.96603539606467    1.69295203679084    4.79529554331921
H        -1.90160894523976   -2.47252577455683    4.42367504646438
H        -1.68355022420040   -1.14709613228504    5.56441578744207
H        -2.94216841663653   -1.04530722355582    4.33463183030583
H         0.15342393396105   -3.28786258469566    3.87377448478047
H         1.68122382453800   -2.90250669116871    3.07324120031838
H         1.38401944816523   -2.35726837807760    4.72360273097017
H         2.80205313152615   -1.30203890493537    2.05517484326285
H         2.56665775157884    0.16673651286522    1.10522536796805
H         3.05513538536522    0.27996648190382    2.79761219712088
H         1.69682680661517    2.14633686066207    1.64550407628365
H        -1.07022900290312    3.40727494815938    1.63385807009503
H        -0.30868229118666    2.54907966458254    0.28061660083675
H         0.00830631111906    5.00521002999802    0.10750218824224
H         1.55131195856163    4.17486252603851    0.29183385278322
H        -0.01402629836803    5.55916558807329    2.51867533423625
H         1.46506467645371    6.15691738038178    1.76780447322807
H         1.93305386644599    5.02920047330781    3.94107487192670
H         2.71859628194255    4.20340138336869    2.59483123313722
H         0.09301006053682    3.38997202900885    3.91901359562479
H         1.64203106745725    2.56574828536751    4.10533807887670
C         3.80808546146778   -5.87654650702437    0.49175971294320
C         2.58382776061028   -5.02482668457495    0.57146152599432
C         2.59334216102273   -3.71789294321816    0.08725298923265
C         1.46510393093806   -2.92663431228596    0.14601543370543
C         0.28083603845067   -3.43945571134294    0.67803158093479
N        -0.86097647534922   -2.63422246594971    0.71077272269334
C        -2.01266060143689   -3.12355442945187    0.37174008298776
C        -3.12750453611721   -2.22793711420735    0.36755514661191
C        -4.42545679649885   -2.61899235083061   -0.02016983827197
C        -5.41903342631452   -1.68295794107907   -0.05568806069541
C        -5.10774624223678   -0.33351587351926    0.21869656556387
C        -6.06150336089061    0.69851678534929    0.12294750472217
C        -5.70268929578362    2.00325542705458    0.33161692597405
C        -4.37081622634351    2.32809401461528    0.63455071857476
C        -3.42617037493099    1.34651622066184    0.76606360914801
C        -3.76761939662773   -0.00538361539538    0.58061640268169
N        -2.82588959472779   -0.96963821740837    0.71702092147925
C         0.25816397057175   -4.74919818085969    1.16274003515191
C         1.40072332777582   -5.52130387321974    1.11372432196550
H         4.70885826490252   -5.27437108366831    0.58123535399015
H         3.83984582255688   -6.37981382019838   -0.47520493274273
H         3.80752814640465   -6.63939910718739    1.26592770324877
H         3.49929147926610   -3.31828288928225   -0.34297253240527
H         1.46826566054128   -1.92344225688780   -0.24962378917236
H        -2.11945893649586   -4.14587020669539    0.02888623193557
H        -4.60817787960368   -3.65092057064920   -0.27099745203259
H        -6.43185793153579   -1.95026957793361   -0.31508321295458
H        -7.07676656058409    0.43937844901439   -0.13586427418291
H        -6.43607634541069    2.78992452633741    0.24768435820989
H        -4.09429782502762    3.36351666718022    0.75805865200187
H        -2.39319893620715    1.58357532666480    0.96133174604939
H        -0.64318293923107   -5.14314224522599    1.60719419109711
H         1.37616304298814   -6.52773642291596    1.50323325895037
Cl       -0.31788428506412    0.02542172408577   -0.78990263085226
