80
 energy: -111.835143811316 gnorm: 0.000377961657 xtb: 6.4.1 (afa7bdf)
Ir       -0.06585581670968   -0.95909241939872    1.67914688161405
C        -1.72755580878354    0.05811989624013    4.41569192383081
C        -0.41908032281807   -0.21608623910829    3.75691463892246
C         0.30590207782534   -1.44223034474928    3.84436301761784
C         1.56548557551463   -1.26552281092787    3.16628042095971
C         2.72986367627840   -2.20133409142632    3.20444507272584
C         1.63934422570454    0.09583084398378    2.72280389538741
C         0.39508020213962    0.73475492757046    3.03587182825548
C         0.12345035159753    2.16661025004809    2.85502885161260
C        -0.28283386585260    2.95697197527992    3.92904800645095
C        -0.49190212331830    4.31159106193568    3.76101773927623
C        -0.29920031623130    4.91844347251615    2.52090436390044
C        -0.50494430108014    6.36446542678519    2.35024875455795
C         0.38771946264636    7.12001080232205    1.59243136496421
C         0.20377754390025    8.48182746879711    1.43915251111851
C        -0.87884928879406    9.10960353093154    2.03372285813780
C        -1.77469923531652    8.36727366939436    2.78590625885781
C        -1.58821198739351    7.00647898676799    2.94673818581456
C         0.10367656606337    4.12396686500044    1.44840713463654
C         0.31062103751329    2.76897719346540    1.61027084746037
C         2.84838321436310    0.75128720757011    2.15554064280843
C        -0.10163736492811   -2.61801574222616    4.66483974812604
H        -1.56961929201091    0.20736367298515    5.48451953896984
H        -2.40873144371285   -0.78172076575059    4.29883926312890
H        -2.18981496795529    0.95181588220467    4.00624982546194
H         3.33955516575556   -1.97775840332550    4.08092119423412
H         3.35032351295716   -2.08091272224225    2.32051556229657
H         2.41186234216419   -3.23751817635504    3.27120088976556
H        -0.40312781482120    2.51577780746434    4.90613056833404
H        -0.78231872232574    4.91444523963873    4.60833557333372
H         1.24397820893259    6.64100603682938    1.14000271940164
H         0.90826905261099    9.05706339802710    0.85569630106917
H        -1.02316712953314   10.17308094124792    1.91170510399342
H        -2.62227687527758    8.85253320361291    3.24793220768231
H        -2.29913498160631    6.43321125977586    3.52403042259566
H         0.24128805904017    4.57152962275739    0.47552330119760
H         0.60415097289087    2.16388179383733    0.76499692336554
H         2.99366652455230    0.46743262571486    1.11340040802689
H         2.74912950059267    1.83306899559221    2.20069999579471
H         3.73023420409928    0.44388367236635    2.71447873284627
H        -1.16986042728113   -2.80437822681850    4.58745416676530
H         0.43844440664691   -3.51496311038613    4.37618714636663
H         0.12709683796703   -2.41211382409981    5.71136255161887
C         4.47809804649812   -4.77763634778050   -3.11147885254877
C         3.33989838892115   -4.95847203712632   -2.11264133640340
C         2.29571802038462   -3.85083236176374   -2.24628665938423
C         1.07550418767659   -4.04043917050413   -1.34346037827682
C         1.41345697361979   -3.90024479878299    0.13841319290151
C         0.16000440351101   -3.96802655006966    1.02503686673646
N        -0.62136716968513   -2.76337761081011    0.90235894192584
C        -1.68120308415317   -2.76888039023380    0.17331007182200
C        -2.41109053828224   -1.53299873174124    0.04704511446879
C        -3.54787138081787   -1.37484787764949   -0.72477203895575
C        -4.18126459408281   -0.12479757161034   -0.77473137361359
O        -5.27674308420386   -0.03573350764269   -1.52068838668634
C        -5.97252339858036    1.20031342265455   -1.60325523275621
C        -3.60637554475730    0.91862147123671   -0.03316449140971
C        -2.46639021871253    0.67612830478449    0.70439175393141
N        -1.87799971176624   -0.51350110311293    0.76545833836659
H         4.10110734328730   -4.79771655481576   -4.13225340414400
H         4.97829482591141   -3.82447228301896   -2.95268172532910
H         5.21348553416597   -5.57201846882882   -3.00387320713155
H         3.75610419381342   -4.96111436606019   -1.10416120091036
H         2.86407719949035   -5.92733928086829   -2.28254095135687
H         2.75634868731471   -2.88608237912016   -2.02466953703120
H         1.95615213906970   -3.81792539901775   -3.28443205094477
H         0.63607770633629   -5.02278417932819   -1.53331902497713
H         0.34085524200333   -3.27769610817358   -1.61192192308757
H         2.08453278792198   -4.70063594769729    0.44582081348585
H         1.91195956481126   -2.94391948227267    0.30073971139650
H        -0.43898765772870   -4.83832715393021    0.73981956978688
H         0.46334024922599   -4.06798899078541    2.06762731731163
H        -2.03098678744229   -3.66449721673834   -0.32887540226342
H        -3.95183078670907   -2.19544026311291   -1.29391612870949
H        -5.34256139770806    1.97751810840500   -2.04086576069361
H        -6.32915717451549    1.51527876373638   -0.62039607567193
H        -6.82183648117923    1.00978469110970   -2.25543504070267
H        -4.03198625083463    1.90748938573272   -0.02612988154770
H        -2.00610537599753    1.47570416390086    1.26745626430646
Cl        0.83678550737273   -0.43658803244226   -0.45616423551777
