93
 energy: -129.083610336699 gnorm: 0.000232864780 xtb: 6.4.1 (afa7bdf)
Ir       -1.21354742313135   -0.83940325676281    1.34137386338395
C        -1.38341433449212    2.01146494186575    3.31936421715782
C        -0.74419743403397    0.71656654951700    2.93534725836351
C        -1.14711382313099   -0.54107523007038    3.54660743395877
C        -2.24965142232859   -0.67228704814309    4.54223347464675
C        -0.17764882411288   -1.52321763214111    3.22615560755249
C        -0.06940501853621   -2.88344511354230    3.82184210329626
C         0.75469331678329   -0.92724588529636    2.30544909273890
C         2.00907349247172   -1.57307232019550    1.82173648715241
C         0.45081559474074    0.48938738585745    2.20547198771999
C         1.42068940020619    1.48215418312183    1.62882574752415
C         0.84900595617671    2.45700132973853    0.59607569661807
C         1.96886603022426    3.33528314227184    0.04431340394543
C         2.64198488133739    4.11455668506196    1.17178068862589
C         3.18908332867345    3.15939499808766    2.22918788527935
C         2.07934104217752    2.26665671563632    2.77710483449800
H        -2.46729321503055    1.94820697773372    3.24690472107905
H        -1.03673840967258    2.83228825831159    2.70265616502745
H        -1.13378562991101    2.22776918338985    4.35907616323324
H        -2.54848853720444   -1.70961035814105    4.66581755191097
H        -1.90855111036021   -0.29841350702319    5.50840877002552
H        -3.11950502768869   -0.09063748642150    4.24603080863958
H        -1.04051901242866   -3.26024412042690    4.13200159675294
H         0.37892026596342   -3.58991294272252    3.12783852747318
H         0.56979746858479   -2.82724216282416    4.70392508645101
H         1.92042488439498   -2.65568469960278    1.83556794878483
H         2.24204794441245   -1.26542219350650    0.80526351532420
H         2.84043544884561   -1.28698733402783    2.46683696105002
H         2.20738811752050    0.91411436257027    1.12389880654999
H         0.09829000843925    3.10098234242448    1.05244367571891
H         0.38094529840442    1.89414881424909   -0.21241576957590
H         1.56311938781707    4.02856352833542   -0.69497858671919
H         2.71006354449956    2.71175125730770   -0.46060151475130
H         1.91661068643672    4.78998006986918    1.63192763397876
H         3.45353120259107    4.72476591013709    0.77021556350517
H         3.63863474915767    3.72708978130813    3.04661407703683
H         3.97159162502335    2.53951379980974    1.78549415429175
H         1.33356230558519    2.88376976964171    3.27886417272601
H         2.49163551196064    1.57157971861626    3.51137661355477
C         6.46710351761062   -4.18356270206754   -4.50966477556716
O         5.17307363001364   -3.62570860513417   -4.59627376590881
C         4.28630063387922   -3.86847860969216   -3.59346428219433
C         3.01509932117820   -3.30996969393424   -3.75375855446518
C         2.03959044431220   -3.50113170776451   -2.80204876351373
C         2.29346789334090   -4.26117591615198   -1.65801934104899
C         1.23690303921830   -4.49568621201957   -0.66474141216647
C         1.12860249393883   -5.72495999288591   -0.01168089519342
C         0.11552122634418   -5.95023710550024    0.90358915056783
C        -0.82029368375127   -4.96892710786603    1.17205934526051
C        -0.72794930869405   -3.73447285033809    0.52338603098836
N        -1.67276068339522   -2.72948519814792    0.78038534567239
C        -2.91924947059021   -3.03269700379654    0.88154075005416
C        -3.87684109478317   -2.00835391640843    1.20228148113737
C        -5.15269171939459   -2.34853708782176    1.61284764159052
C        -5.97068543166093   -1.32306922885658    2.08914900776806
C        -5.56103465699640   -0.02972139199552    1.92881521919506
C        -4.33783665698707    0.26828357643376    1.25102030391650
N        -4.12582109568339    1.50707995117503    0.79489925275560
C        -2.89529694410048    1.90723443212749    0.13852070790871
C        -2.76844415458019    3.42507522871616    0.12467044687725
C        -3.86379756806111    4.05360336952605   -0.74089539737160
C        -5.12276537928210    3.18574517987514   -0.68228460669207
C        -5.22658841821218    2.45442205404368    0.65481483288530
N        -3.43049894951106   -0.72792779786772    1.09010564499234
C         0.30966530261561   -3.49945992154882   -0.37244830501856
C         3.56373802080872   -4.80738989690303   -1.50288014481160
C         4.55333088998558   -4.61545512677966   -2.45010881847582
H         7.00957715493259   -3.80033111982123   -3.64007542418272
H         6.97951310975080   -3.87563128744791   -5.41931967805398
H         6.42842172064635   -5.27618820853101   -4.46721774670654
H         2.81881875093374   -2.73336019102776   -4.64386499601842
H         1.06018253202473   -3.07665313340832   -2.96006576708854
H         1.83143938228070   -6.51235142568720   -0.23434803653135
H         0.04861520071759   -6.90209556709085    1.40811341619320
H        -1.59992195452619   -5.14432606657469    1.89721673679083
H        -3.27202528980210   -4.04479423907642    0.71181067586139
H        -5.46294391359579   -3.37859005206046    1.63756560985560
H        -6.90671798457759   -1.54800419817341    2.57490906137085
H        -6.15062087147612    0.77429422504894    2.33353448448112
H        -2.86608744485794    1.51870337908095   -0.88446614898209
H        -2.05201885269307    1.46576754069173    0.67337794882863
H        -2.84007374149957    3.79967764610474    1.14657131786104
H        -1.78690222975984    3.69225286006314   -0.26323833525166
H        -3.52795776116736    4.13596751061357   -1.77469485128748
H        -4.07801921107747    5.06198103477053   -0.38509280954700
H        -5.10639350791187    2.44291256725965   -1.48098252754024
H        -6.01549248137479    3.79566163304755   -0.81961674042307
H        -5.21180084708343    3.17597310251371    1.47800081599685
H        -6.17518092013459    1.91857145265011    0.67033740781580
H         0.37719168590280   -2.53723029932079   -0.85276588311226
H         3.79950893875881   -5.37832758859091   -0.61718543982772
H         5.52590004009090   -5.05238513523339   -2.28774107875207
Cl       -0.89239697206760   -0.40778957165126   -0.96992153598080
