88
 energy: -134.800233315539 gnorm: 0.000313361137 xtb: 6.4.1 (afa7bdf)
Ir       -1.05714527912878   -0.50084803965156    1.03086043237303
C        -1.62047068127654    2.43778852881247    2.94751782667745
C        -0.94389298768237    1.14581401104186    2.63613139978372
C        -1.40172471157754   -0.11555440006524    3.19123469535572
C        -2.65093897285977   -0.28818186622684    3.98548229749113
C        -0.34678331251706   -1.06693288741082    3.07677118332273
C        -0.29829201056641   -2.39823749850270    3.74327844484983
C         0.71836564014926   -0.44170306033855    2.33904407259150
C         2.08786618549673   -1.00781616895014    2.16585421265821
C         0.36717572593005    0.94851158160328    2.12488807848504
C         1.36986728891425    1.96083608577324    1.65429305701997
C         0.89828500189464    2.92367385539021    0.56169974699836
C         2.06423460730057    3.80554575064258    0.12290111444503
C         2.61193961242038    4.59771129358636    1.30767063417225
C         3.04248783681458    3.65742316054735    2.43021591147231
C         1.88130836159612    2.76654386754128    2.86202560854379
H        -2.69918738792834    2.32079476732556    2.97948751293397
H        -1.37853924047348    3.21306263710588    2.23026177812597
H        -1.29067534638719    2.76429465614863    3.93520179403588
H        -2.94676319629537   -1.33206036351015    4.03428446716903
H        -2.47655983926985    0.06508154498923    5.00225927702789
H        -3.46677991200147    0.29200361278207    3.56307821199654
H        -1.28840404116789   -2.83790146872689    3.82294593385706
H         0.35620812632632   -3.08722109800162    3.21670748785406
H         0.09302592627791   -2.26369973776649    4.75259191211309
H         2.08626768564129   -2.08600077620421    2.29318397657804
H         2.49425200089821   -0.77671025305717    1.18444878267550
H         2.75149577086098   -0.57424671864287    2.91467378121259
H         2.22097420125349    1.41095119738368    1.24112885566616
H         0.09654462595718    3.56440304114629    0.92686819409437
H         0.52298969377171    2.35300085146199   -0.28720633964281
H         1.73209430332354    4.49179497868308   -0.65857197396971
H         2.85794577464837    3.18431535945904   -0.29924728291791
H         1.83978370438131    5.27631436479733    1.67756357501298
H         3.46065995137796    5.20552257652806    0.98766370078723
H         3.39636067281649    4.23750395449999    3.28489640162051
H         3.87176635673021    3.03650150551806    2.08320648637407
H         1.07568333065410    3.38759375814649    3.25404275669755
H         2.20718936202098    2.08920622688975    3.65362152448812
C        -4.21013094622933    7.94186559020630    1.70394377465147
O        -4.26381538347315    6.52409255505730    1.57535065829690
C        -3.37778800350411    5.95715175618236    0.75335422400025
O        -2.54235133400373    6.58201022302946    0.13754436078496
C        -3.53013965424284    4.48078823295704    0.68234767027187
C        -4.54177548574673    3.81385065159189    1.37183632616257
C        -4.67565873597875    2.44636495451706    1.24003042286628
C        -3.79101412057276    1.72004308773664    0.43830619123372
C        -4.05166915563116    0.29777527559984    0.16613966972115
C        -5.34567315993022   -0.03274904656734   -0.25460875988765
C        -5.64870032746261   -1.32420893621201   -0.64323438960030
C        -4.63649112950255   -2.26755256095969   -0.61783465577671
C        -3.37765805629367   -1.88713738696529   -0.15991581567542
C        -2.28075632037444   -2.81048701939632   -0.12173167955674
N        -1.14432385792567   -2.39486652310147    0.32558499912587
C        -0.05651995284921   -3.28123438541419    0.35332357358687
C        -0.18598756845638   -4.53500968749227    0.96773445759475
C         0.87633323653818   -5.40708826661237    0.98233119513747
C         2.09589939094453   -5.07483156959391    0.37670574130092
C         3.24619900505640   -5.95075373682548    0.34068856963318
C         3.18568399057938   -7.29427784412102    0.98218121446008
C         4.36017099749419   -5.50978257503489   -0.28925990261166
C         4.45153644659221   -4.20971293875028   -0.91778571398842
O         5.42672445101424   -3.77445747804903   -1.49075045206810
O         3.34432227036717   -3.40919295164657   -0.85131104117703
C         2.20981984654726   -3.81559827350772   -0.23897609827240
C         1.14231862510515   -2.92138635458350   -0.24095924697888
N        -3.08982803332051   -0.62610308669888    0.25185730823250
C        -2.76435239158571    2.38490384305609   -0.22827788276205
C        -2.64330570125964    3.75679274025546   -0.11136884325408
H        -4.94544763074930    8.20097085432707    2.46047674577197
H        -4.45290304680501    8.41636345441604    0.75131526560387
H        -3.21030517080331    8.25661677170885    2.00833863324151
H        -5.22317273309767    4.37418571851962    1.99092999666983
H        -5.46630529546795    1.93417721802190    1.76777292539321
H        -6.09163642563775    0.74454305727572   -0.29530273922361
H        -6.64231665327814   -1.58234501103659   -0.97346542120511
H        -4.80393163084997   -3.28225464002405   -0.94005413390274
H        -2.40478007445667   -3.81647631536734   -0.50836829922098
H        -1.11604161061566   -4.80210764375600    1.44413316060792
H         0.76786485432427   -6.36497389783946    1.46336911563241
H         4.12854127016494   -7.81759858150829    0.85536622870359
H         2.98041977654909   -7.19553584338794    2.04657368555253
H         2.39190434435545   -7.89058496717676    0.53600238006186
H         5.25128830101431   -6.11315566753208   -0.35810944265122
H         1.24708179852034   -1.97015831281405   -0.73626576032500
H        -2.09355451451244    1.83466364734386   -0.86756758637817
H        -1.87200101883959    4.29103010488156   -0.64497316792263
Cl       -0.37548931089715    0.03170393593436   -1.19256099204226
