72
 energy: -103.155778286231 gnorm: 0.000797532308 xtb: 6.4.1 (afa7bdf)
Ir       -0.50646013940966   -1.01195131903778    1.47124464699292
C        -2.11405079292889    0.89518719935983    3.84772257284079
C        -0.86499494518587    0.28934192591154    3.30131899714542
C        -0.39647557712609   -1.01246164320682    3.70810296852204
C        -1.07341998466179   -1.86953301198496    4.72430453663583
C         0.95203799621293   -1.16996952031987    3.22811719467913
C         1.92917674490098   -2.21315582961174    3.65273808635670
C         1.26142968741865   -0.03811510666568    2.43246285655760
C         2.59739361051876    0.26250123077443    1.84357871751091
C         0.12827699122306    0.87731132628975    2.46593094796038
C         0.21958260570066    2.28751021682881    1.94796558589332
C        -0.93223888686841    2.71820767362195    1.03388482774144
C        -0.66664675345013    4.12155738018863    0.49559247536069
C        -0.51160411949644    5.11524259848918    1.64457361479856
C         0.61568285463240    4.68247806885955    2.57873859751689
C         0.36225548333482    3.27645937187821    3.11595428663957
H        -2.95169675614824    0.20380159328569    3.78143435875221
H        -2.37418910828065    1.82045341141634    3.34638706472065
H        -1.95375040537763    1.11422413005336    4.90432513603140
H        -0.74245269778189   -2.90153248694849    4.65637870915411
H        -0.83272144257999   -1.49934676853382    5.72179215258624
H        -2.15300253156847   -1.84161540053568    4.60633622594079
H         1.44862967463020   -2.97362803214372    4.25896754352763
H         2.40462103583716   -2.69309396340122    2.79953112861165
H         2.70836164342646   -1.74124976887172    4.25143846984773
H         3.22665349899563   -0.62257125360527    1.84446739441549
H         2.50244091976352    0.61558191039281    0.81845423333322
H         3.08686524800506    1.04189277314986    2.42868975316483
H         1.13267234926647    2.35142476628791    1.34817521835829
H        -1.87576023298069    2.73288690343683    1.57957129407504
H        -1.01708252575617    2.01184398737908    0.20617604617380
H        -1.48946147458095    4.42880407908328   -0.15326800292864
H         0.24496023497122    4.11638337279128   -0.10641174316413
H        -1.44760407832593    5.17354511729897    2.20561159049452
H        -0.30140071286815    6.11083013602337    1.24847950321926
H         0.69882986321554    5.38376846128485    3.41173239198383
H         1.56237588142458    4.70115107678815    2.03342230801603
H        -0.54750857641561    3.27901547619196    3.71682009092317
H         1.18920351108091    2.97000952566465    3.75969885359585
C         4.49273707823268   -6.74514536737418   -0.15171829770698
O         3.59963801840659   -6.53821676612023    0.92427821545193
C         2.61687541979005   -5.62047697189391    0.78875407125186
C         2.41248479782447   -4.81942082451997   -0.32501733052545
C         1.35688666960776   -3.92298496589331   -0.37281109866167
C         0.51523475295407   -3.78920664700566    0.72123807445496
N        -0.56125522622932   -2.88752353926072    0.67488794540472
C        -1.50960090657330   -3.09889908171181   -0.18172316917425
C        -2.55418444405367   -2.12222629572042   -0.24612775949797
C        -3.66484719574701   -2.20280467119191   -1.08816297449247
C        -4.60668219036783   -1.19350452291712   -1.05545110636213
C        -4.41172085374984   -0.12876923325822   -0.18056827159490
C        -3.28470192402235   -0.10839224928999    0.62032583902618
N        -2.37117218403280   -1.07714157104284    0.60147469916878
C         0.71282647441781   -4.57593678552620    1.86037086583934
C         1.73822024137863   -5.50261438709180    1.89933748731072
O         1.99133940950632   -6.34330269280583    2.92917633607210
C         1.12983921581574   -6.32772131944074    4.04886819561389
H         5.17517216877301   -7.52298809144067    0.18421597316770
H         3.96501248442125   -7.08513112864842   -1.04688959458013
H         5.05893386705782   -5.83798810971080   -0.37932812764430
H         3.06730536696016   -4.89373568098891   -1.17732098338210
H         1.20914536284425   -3.29887149815365   -1.23946388895603
H        -1.51503991676337   -3.97680917413997   -0.81706943517900
H        -3.76358504481756   -3.04502158652361   -1.75361162090039
H        -5.47397128750307   -1.22796813476402   -1.69543957493695
H        -5.12395282467924    0.67763257892033   -0.11974132732515
H        -3.11009846096002    0.71021325747815    1.30034651698416
H         0.02162266316639   -4.47503608638455    2.67977055143307
H         1.16669712329441   -5.36414314203876    4.56404127720060
H         0.10035333703921   -6.56054479106947    3.76331483588740
H         1.50576171720782   -7.10313123426231    4.71310195632652
Cl        0.21323219809028   -0.37705889404613   -0.71524691366748
