67
 energy: -107.120230610566 gnorm: 0.000240367079 xtb: 6.4.1 (afa7bdf)
Ir       -0.29765837856292   -1.22514564091102    0.85311963048761
C        -2.29766956465790   -0.03438209936541    3.32791410093394
C        -0.92957281056496   -0.40184314499488    2.87201035274339
C        -0.31647635063322   -1.68276901934348    3.05258369238409
C        -0.91820006385554   -2.82257987741244    3.79975547027534
C         1.05659512905260   -1.58343674608511    2.62098795519616
C         2.13953510574822   -2.56779494226735    2.90754529631486
C         1.27024470412174   -0.26326997297076    2.12446660331637
C         2.59241832553381    0.30894881668249    1.75649317599826
C         0.02433606678053    0.46654302554292    2.24934003932638
C        -0.11043622416767    1.92280300131333    2.07961005990582
C        -0.48404631983877    2.70310012320938    3.17256422988609
C        -0.55745383112366    4.07504079727292    3.02381187597247
F        -0.91139373831682    4.82261735034045    4.08935438747391
C        -0.28014902021216    4.71212416741338    1.82732732317876
C         0.08305058740132    3.90895392473427    0.76049979153720
F         0.35733787703990    4.49357253270114   -0.42359699384021
C         0.17485425615650    2.53387858232874    0.86083627368656
H        -2.58986832600580    0.94248010921284    2.95300701093938
H        -2.31125698976620   -0.00260584037136    4.41786033959364
H        -3.03295751543776   -0.77310597174652    3.01571846652936
H        -0.52331621333604   -3.77569537560306    3.45999622843128
H        -0.67884817653226   -2.71753568835850    4.85857129056651
H        -1.99934816989621   -2.83088660100619    3.69739794756545
H         2.65468668478726   -2.25562764649530    3.81708343041658
H         1.74310025335484   -3.56429355464777    3.07509292609692
H         2.87320544477353   -2.59827923538119    2.10689802504360
H         3.10736951676686   -0.31968879816314    1.03330538266947
H         2.48581157019210    1.30543089973406    1.33854348649133
H         3.21395624770404    0.36667676566221    2.65059673621379
H        -0.68963732190289    2.26179251416963    4.13393839052538
H        -0.34076818116174    5.78323428642188    1.73170024878891
H         0.44917454850839    1.95080779979388   -0.00462080487778
Br       -5.02682600578704    1.66314483926278   -1.03511264967923
C        -3.93447544361164    0.10377324602353   -1.08121903484159
C        -4.21013666809541   -0.93758724316312   -1.96652094103810
C        -3.38365925187199   -2.04280068641937   -1.94947121502814
C        -2.31517883890852   -2.08457606862043   -1.05181007667159
C        -1.36816979896900   -3.15795099849577   -0.94766963238794
N        -0.40067457155118   -3.01787948415210   -0.10646992614210
C         0.59373855491258   -4.05416825662853    0.01057524429592
C         1.92240257082357   -3.62569068724496   -0.63195378037873
C         1.85324737065105   -3.61091412135833   -2.16201168276571
C         3.19285752519832   -3.22507705363926   -2.72910720488658
C         4.10141537906985   -4.19182601390817   -3.13910073192983
C         5.34274869202446   -3.82800079498698   -3.63290954318407
C         5.69194590989902   -2.49077748811257   -3.71834454785582
C         4.79326330788781   -1.51958896849597   -3.30797968586284
C         3.55377167379025   -1.88589048626475   -2.81508959781585
N        -2.07300554485942   -1.06454275086938   -0.19131473682658
C        -2.85632491807855    0.00502191691162   -0.21177764857717
H        -5.04442669783184   -0.87260893177276   -2.64679467858481
H        -3.54922227034269   -2.86632120582017   -2.62560381164133
H        -1.47332769607936   -4.04611768349973   -1.56105208556574
H         0.23890010107460   -4.97215555292797   -0.46662214919167
H         0.76135943128101   -4.24231330517626    1.07176308245640
H         2.18697474912648   -2.62582356938249   -0.28441120734980
H         2.69796426846762   -4.32189404022879   -0.31225779622949
H         1.57067115069426   -4.59827528373876   -2.53053866077486
H         1.10611792825279   -2.88319869779967   -2.48222199377327
H         3.83735289223577   -5.23815980630617   -3.07951195429489
H         6.03954026717838   -4.58901421762686   -3.95404942594215
H         6.65999514566417   -2.20621441943816   -4.10501988184734
H         5.05980688116231   -0.47446133744765   -3.37539598889658
H         2.85473337243028   -1.12581061747312   -2.49937074838587
H        -2.62628734128948    0.80921331227736    0.47101393475769
Cl        0.58223275354470   -0.33004908491597   -1.16160661290936
