72
 energy: -102.323007954810 gnorm: 0.000601617097 xtb: 6.4.1 (afa7bdf)
Ir       -0.52802698826553   -0.52662777024519    1.28820140183382
C        -2.60271800498293    1.54672234160643    3.08676525812268
C        -1.46489160589710    0.58522686953921    3.02767996739498
C        -1.61689045001085   -0.84796198204139    3.19102725500249
C        -2.91777379505955   -1.53674178819607    3.43339062918035
C        -0.31691576605087   -1.41166884271712    3.36424960999430
C        -0.02505524586429   -2.80047035396935    3.81353738409787
C         0.64313952655492   -0.36627961875861    3.16469859431558
C         2.11148672514354   -0.43928026912916    3.40489731398230
C        -0.07990675867597    0.88118546272998    3.00515103225737
C         0.57826238292451    2.22022119476026    3.00893807949427
H        -3.00498288555612    1.54862851876705    4.10027816595439
H        -3.40426813589583    1.25538701244144    2.41184847426065
H        -2.28221952125161    2.55434179001987    2.84358641775142
H        -3.70943652443885   -1.09485754363525    2.83373066410802
H        -2.85208016505844   -2.59583392040322    3.20019042787402
H        -3.19275634203009   -1.43666102815658    4.48397608575148
H        -0.77325987062071   -3.50217852975491    3.45524011726308
H         0.95913852176883   -3.12498311273121    3.49017242336891
H        -0.04368754926084   -2.82028525997820    4.90424297839626
H         2.65318530487334    0.12154912500250    2.64662535318150
H         2.46651104725853   -1.46442383115507    3.40600172962168
H         2.33685412880869    0.00538352043270    4.37505820007230
H        -0.14513265049516    3.02119731246754    2.89470363149025
H         1.30971452278238    2.28933977198966    2.20551995744172
H         1.10546245659765    2.35778119612456    3.95275131391540
C         4.85375909960892   -1.09311405352956   -2.30855599513763
O         4.23563233115294   -2.01205313398954   -1.41044565651805
C         3.08731841209050   -2.56044017157459   -1.79836437680012
O         2.56401141060155   -2.36065361730940   -2.86707806551536
C         2.53792802639234   -3.46916051514331   -0.71959968232785
C         2.09404405371212   -2.73766131533225    0.56497220690561
C         0.66580002065804   -3.27248298673538    0.37214994860849
N        -0.39327655680329   -2.29427691079769    0.28752963614676
C        -1.44346481809968   -2.59433141972874   -0.38505258309758
C        -2.51714644743249   -1.64216862639378   -0.50391682430690
C        -3.76368527517914   -2.03925164016249   -0.94890577084751
C        -4.79762427947506   -1.10378963488799   -0.88607115377318
C        -4.49142248765896    0.19443424774768   -0.59101638911990
C        -3.13525164328904    0.59721686202131   -0.38266737549588
N        -2.82406843095931    1.89701517593764   -0.43101908235731
C        -1.48970341256681    2.40967199997297   -0.18594608331071
C        -1.54855832348385    3.87959497602313    0.21091597354341
C        -2.04966501303173    4.73571375639941   -0.95526156997780
C        -3.00441268190221    3.91025793863630   -1.82086869095157
C        -3.75537473357074    2.87340624231120   -0.98754170011623
N        -2.20846787931319   -0.36668057256878   -0.14472907554853
C         1.09531317220033   -3.93458808579148   -0.95613365852827
H         5.06935667922944   -1.58078494626342   -3.26087258266992
H         5.77077837120262   -0.77144670282053   -1.82352529267741
H         4.19155377689253   -0.24416596959609   -2.48638864015317
H         3.26075756203385   -4.26495961120749   -0.54222772458950
H         2.59627312156173   -3.07441403052110    1.46626294760177
H         2.16233142504136   -1.65643532371701    0.48991526954137
H         0.38161178421411   -4.00281649071762    1.13479640286583
H        -1.54752905841169   -3.55657946027828   -0.87642283712564
H        -3.93710200232848   -3.05537967780311   -1.25715272257306
H        -5.81823611554453   -1.40034233289727   -1.06711160098034
H        -5.27945207992522    0.92008573419957   -0.49103410966379
H        -0.86604345686233    2.28758435792531   -1.07724375828655
H        -1.02813437166853    1.82490575707526    0.60940477565267
H        -0.55459343146528    4.20313348413881    0.51700983637523
H        -2.21810656424750    3.99374489951900    1.06453816922909
H        -2.55446163813148    5.62203321673172   -0.56911421647317
H        -1.21164785613123    5.07588321240483   -1.56396305848697
H        -3.73124998488589    4.55781967948068   -2.31133610531322
H        -2.44989798403794    3.39006400325817   -2.60314574452274
H        -4.30570755719679    3.37051617891702   -0.18174138225853
H        -4.46525851106445    2.36983800649035   -1.64368648479547
H         0.95245587688286   -5.01023967407481   -1.01054145573974
H         0.66738537779648   -3.46057447991215   -1.83819395288612
Cl        1.02984073608675    0.35055838954081   -0.30998122967877
