57
 energy: -92.886412026883 gnorm: 0.000537029136 xtb: 6.4.1 (afa7bdf)
Ir       -0.80999957012793   -1.22554438607031    1.29567015296880
C        -2.07563480541167    1.23012087593311    3.35091081780478
C        -0.96956608583261    0.30765110181191    2.96674510428005
C        -0.77601262115880   -1.02415088130046    3.51060558875214
C        -1.63461507034413   -1.65417455372992    4.55251562051184
C         0.52247214524371   -1.48188590947314    3.10766181285985
C         1.22135025209015   -2.68865791492260    3.62838265809196
C         1.07153643931524   -0.50444958969950    2.21782475534013
C         2.46981964803810   -0.45513053464690    1.70461591237408
C         0.15648776868421    0.62671871903220    2.17520532638742
C         0.47901600286451    1.93193016819696    1.53694133109812
H        -1.78845383841818    1.76044848379063    4.26009772839679
H        -2.99547738269531    0.68942286963442    3.55909859023576
H        -2.26277849389195    1.97412875467763    2.58017440955991
H        -2.68369562602781   -1.41676134052614    4.39872125747979
H        -1.51431848199825   -2.73350661584784    4.56214695226319
H        -1.34299255873567   -1.27134487158401    5.53127571349559
H         0.51831777901118   -3.47317257053513    3.89323738611364
H         1.92991062206035   -3.08019046053110    2.90389046474347
H         1.77186533694842   -2.40865593910904    4.52693192953009
H         2.49659894060172   -0.04435790488696    0.69812118400683
H         2.92659222814908   -1.43986145225596    1.70269595069782
H         3.05889335688001    0.19936269166280    2.34834649372828
H        -0.37243622865392    2.60531410685440    1.55025766044888
H         0.79266203687618    1.78757530001920    0.50486590457272
H         1.30306120676074    2.39886645952445    2.07647185868311
C         3.73225929876181   -6.46901084778222    0.76103360648939
C         2.52887291080262   -5.58806548688295    0.70126734410296
C         2.60776072993310   -4.28612479212103    0.21190255487798
C         1.49897322971856   -3.46426803663620    0.18953591657512
C         0.26734682141843   -3.94440194233978    0.63745160013006
N        -0.84969914142870   -3.10666516976421    0.59643163866196
C        -1.97188758174224   -3.54465293086092    0.10513085339950
C        -3.06917695212906   -2.63124200447827    0.08515091410970
C        -4.30380188152799   -2.88365304747587   -0.52343418295315
C        -5.26692209570037   -1.89759954468144   -0.52902480502900
C        -4.96013450089087   -0.67394175655657    0.07372441194398
C        -5.94882972502674    0.46023932320926    0.07763205480790
F        -7.21315975051571    0.04640420163003   -0.06522013118756
F        -5.71597781373478    1.33515277952029   -0.91890917824710
F        -5.89756003754313    1.17053070165524    1.21692441153702
C        -3.71729336992001   -0.48679410565457    0.65940063408478
N        -2.79778871157091   -1.44145440373565    0.68204860763413
C         0.17109432497011   -5.25484693703766    1.11425499469079
C         1.29406276247947   -6.05356500451163    1.15366038508033
H         4.57087089985948   -6.02837988014641    0.22934461048982
H         4.02527646802152   -6.62837344086201    1.79843856398476
H         3.51343319594138   -7.44424783625454    0.33060540136176
H         3.55041371006441   -3.91308237729753   -0.15890725181267
H         1.55261850562407   -2.46632714941176   -0.21674434214733
H        -2.05759639135723   -4.53772839013396   -0.31850946907117
H        -4.48501760793338   -3.83840782516064   -0.98944290884363
H        -6.23216013799098   -2.05651309921448   -0.98432811128918
H        -3.46549700558513    0.45490981268130    1.12480194081689
H        -0.77383002828668   -5.62154220321546    1.48474785038845
H         1.21788938305175   -7.05861453486577    1.53990873040931
Cl       -0.45452150798476   -0.46257567764198   -0.93380720942527
