67
 energy: -118.005519671409 gnorm: 0.000672059766 xtb: 6.4.1 (afa7bdf)
Ir       -0.50471997245026   -0.86974244750486    1.50666277691566
C        -1.77977997095053    1.01536478778371    4.07936304504564
C        -0.60946115081256    0.34569158561967    3.44921059653005
C        -0.20426583932725   -1.00579667216369    3.71856764956309
C        -0.84173504739178   -1.90847343186117    4.71808581258809
C         1.07529797733711   -1.21793796109495    3.09384801648107
C         1.99395829870842   -2.35715992874644    3.36228515392410
C         1.40383027690762   -0.05215035823282    2.34705269358920
C         2.71572578173030    0.20491191084132    1.69415826076353
C         0.35012951366434    0.92749531844075    2.56639327258628
C         0.46428399409074    2.35361286324209    2.21838908415658
C         0.41527422744363    3.30547664015886    3.23560651502344
C         0.57668865229372    4.63982830455457    2.91465002059047
F         0.53361407009174    5.55300320603968    3.90618619924303
C         0.78120668005884    5.07578595169255    1.61757744742468
C         0.82154247691051    4.10659918877705    0.63019304010975
F         1.01509372038167    4.49562119002421   -0.64605648668112
C         0.66934580381116    2.75999227505419    0.90085492723840
H        -1.98136821968000    1.97954642521766    3.62282199452648
H        -1.56888383485782    1.16454447879827    5.13901967892161
H        -2.67228962339250    0.39745049054255    4.00953797012673
H        -0.60958666953217   -2.94878448878224    4.50907686213067
H        -0.45747064360595   -1.66961160372766    5.71049891748800
H        -1.91988886072616   -1.77732848991948    4.73449715859636
H         2.54467602606462   -2.14331104690711    4.27931722496434
H         1.45351045232352   -3.28874108460411    3.50415167617497
H         2.71164635661032   -2.48030650300333    2.55705835642223
H         3.00527084688955   -0.62659586937391    1.05524845939204
H         2.68535372004624    1.11120484055108    1.09774062321946
H         3.47862586854984    0.31849860553133    2.46480974612774
H         0.28209914389359    3.01999507857674    4.26582478901499
H         0.90485506296685    6.12073460895900    1.38730533681660
H         0.68535169813663    2.04423409158318    0.09274996983664
O         4.59745063087265   -4.86698398776725   -0.64217784687833
C         3.79843382814501   -4.02924858528572   -0.29430398042505
O         4.02603699051267   -2.72279535947364   -0.39437331155193
C         2.47381278725426   -4.34823082520848    0.30504059447503
C         2.26027114242726   -5.62650476752604    0.81837969526838
C         1.04050089822922   -5.94580374615417    1.38979249902124
C         0.02372089926188   -5.00816975067570    1.43271488078629
C         0.22984781918365   -3.73193503725469    0.90332485469006
N        -0.79481869966854   -2.77406351230467    0.91778282900198
C        -1.99797527468311   -3.11051146430204    0.57203823461339
C        -2.98610561850376   -2.07797001411064    0.56051254672709
C        -4.32665871438963   -2.30517883697944    0.18907519876565
C        -5.19703288503831   -1.25375316103653    0.16014263445723
C        -4.71742085256025    0.04777325182570    0.43156890233590
C        -5.55029282130949    1.17843895797775    0.35185145981567
C        -5.03502167693147    2.43245552517167    0.56291697396788
Cl       -6.05035087882977    3.82755395258362    0.45488846442279
C        -3.66772576523062    2.60356703481361    0.84665502278647
C        -2.84619588523535    1.51672199433809    0.95648983492128
C        -3.34129205756572    0.21004829927487    0.77500267830959
N        -2.52338574575882   -0.86258944230203    0.89751463156727
C         1.46283162666647   -3.39674017919466    0.34958733153499
H         4.88785963422416   -2.54302414057182   -0.81186048859068
H         3.06084314008211   -6.34755162140380    0.76637038149560
H         0.87952646837751   -6.92952772062174    1.80137089892403
H        -0.92016965766051   -5.25095634052230    1.89658409776552
H        -2.23624367612720   -4.11387291024755    0.23870811602599
H        -4.63948148353018   -3.30691950554852   -0.05554858684763
H        -6.23728712261116   -1.39350880469993   -0.08908142035662
H        -6.59225982048218    1.04661947511607    0.10797382807757
H        -3.27576146609838    3.59984175664986    0.97130486077406
H        -1.79206174201892    1.65221962179484    1.13413396325097
H         1.60746501454828   -2.41685040681648   -0.07941897033865
Cl       -0.03271485170953   -0.31220070559103   -0.75737359765245
