58
 energy: -97.626276660129 gnorm: 0.000633955637 xtb: 6.4.1 (afa7bdf)
Ir       -0.23082770765820   -0.95931586794377    1.77490584742058
C        -1.96008605410638    0.46101308794785    4.32067606218471
C        -0.64868582648333    0.03092902951159    3.76411894303808
C        -0.03027823973824   -1.24055083707474    3.99270405909123
C        -0.56163655817022   -2.31716099511555    4.87410618600089
C         1.29399501485062   -1.19955282842185    3.42651844811357
C         2.37236063831608   -2.19479661477012    3.68160380702906
C         1.47381439771673    0.07396929764252    2.80774589783612
C         2.75984069177471    0.59499291416244    2.27320401342978
C         0.25272029522078    0.83230605450074    2.98762266234124
C         0.10866617033303    2.26915498977852    2.70130632451050
C        -0.17276997627794    3.15172713899505    3.74285943924762
C        -0.26157374062964    4.50382737483108    3.47083067189160
F        -0.53051773765779    5.35068304702470    4.48545278080535
C        -0.08333746585244    5.02312418294604    2.20077736147378
C         0.19346825015394    4.12050597999055    1.18876053039537
F         0.37005047152180    4.58916805677091   -0.06328600326148
C         0.29108097601021    2.75992417862629    1.41019111780366
H        -2.29561768541715    1.38801039323862    3.86524153005501
H        -1.85246130986468    0.62356887559226    5.39366901503731
H        -2.72062473686497   -0.30399466618991    4.18249352449211
H        -0.20870512405362   -3.29454899482522    4.55586952268097
H        -0.20910435456425   -2.14758752045820    5.89208650395808
H        -1.64757599588791   -2.31429804842961    4.88777500598973
H         2.85126533181520   -1.95044457891299    4.63069028341311
H         1.97645544524969   -3.20386337501247    3.75293746088851
H         3.12805734564424   -2.16352716830439    2.90303061926587
H         3.19297405105641   -0.09104218535018    1.54862611041685
H         2.62255254246176    1.56128372518264    1.79711860113939
H         3.46597612464439    0.70422199304123    3.09707506075190
H        -0.29650735447395    2.80413970483674    4.75518383982623
H        -0.15395315882355    6.08075972136557    2.00899311637529
H         0.48898205885094    2.09325162371170    0.58488835594291
Br       -5.09098515314447    1.85099193951804    0.04876832688585
C        -4.05850936879085    0.25279493188793    0.11653300579254
C        -4.49620092702943   -0.90524535779279   -0.52595909549348
C        -3.70999033715079   -2.03525815854668   -0.44041430080234
C        -2.51749028830363   -1.98550940674730    0.28632558503807
C        -1.59275107062954   -3.07033421410312    0.41743786325090
N        -0.48814853951976   -2.82467161110270    1.04938279092232
C         0.46655223701859   -3.83921491746682    1.21062288877415
C         0.09941208176981   -5.08556816028664    1.71934657876893
C         1.05826664411031   -6.06991121852964    1.87265080870925
C         2.37301011193150   -5.83015461392156    1.50125775826306
C         2.73384252613320   -4.59418639346785    0.98405777780806
C         1.79093244929691   -3.59258617210608    0.85003682623980
N        -2.11719215777532   -0.85083112873499    0.91490751484986
C        -2.86322071390731    0.24156081022025    0.82406716786922
H        -5.42235035271892   -0.90785610787241   -1.07848553457527
H        -4.00101626356004   -2.94965791573462   -0.93230271577691
H        -1.79124523310305   -4.03748558235916   -0.02902575396340
H        -0.92265409048955   -5.26174468188366    2.01747063665385
H         0.77743023205635   -7.02873177549839    2.27966516952557
H         3.11519441861249   -6.60458433929093    1.61515301213025
H         3.75420638904049   -4.41117088857544    0.68500713573895
H         2.04772822025569   -2.63106771673481    0.43223063153604
H        -2.50772088498865    1.13333278319478    1.31881596987264
Cl        0.52109129182136   -0.35208879279922   -0.40071474760502
