59
 energy: -97.789626319244 gnorm: 0.000408074832 xtb: 6.4.1 (afa7bdf)
Ir       -0.87332313366695   -1.06813856895151    1.25514262618941
C        -1.89795053270696    1.51434723056595    3.28068479109551
C        -0.83103809531755    0.60038092326826    2.78632604789586
C        -0.46369058024496   -0.65055209658383    3.40984379418639
C        -1.08084282290933   -1.19994255845330    4.64892186304633
C         0.76688407458212   -1.09784557323815    2.81272550691553
C         1.60289546666378   -2.22373318370123    3.31031758841803
C         1.09993793447592   -0.19304356235000    1.76072213077851
C         2.36983888908033   -0.14945223666207    0.98242758534559
C         0.11605575288116    0.87775739552372    1.76330758313328
C         0.23891071915034    2.12350632811967    0.95998607807510
H        -1.48827591257030    2.11105331763647    4.09682535875221
H        -2.74865243220370    0.96102171636327    3.66912181635066
H        -2.23003478498586    2.19840259677116    2.50449256725856
H        -2.15694978335277   -1.05073141531675    4.65522445666503
H        -0.86895121518646   -2.25896409286810    4.76098066813876
H        -0.66546187289046   -0.67850463844050    5.51234968617368
H         0.99087607289827   -3.03172461002618    3.70104577951506
H         2.25012865450076   -2.61528463804401    2.53087095631423
H         2.23228644791028   -1.85523256102093    4.12113542913000
H         2.17473562621150    0.09849531422963   -0.05837811085248
H         2.89949657480642   -1.09570525029359    1.03074746784151
H         3.01275216480084    0.62848212970270    1.39489846127835
H        -0.66610279886421    2.72110090808115    1.00483210485952
H         0.45306939291690    1.88894175129729   -0.08045351621135
H         1.06823860742113    2.71536545095278    1.34803630522645
C        -9.05165287417790   -1.45553213026892   -0.67961672931706
O        -7.70224448112077   -1.24635870707561   -0.26229726688162
C        -6.87379442303841   -2.27540843371392   -0.36622964564398
O        -7.17791994160207   -3.36846896317636   -0.78128780093603
C        -5.49007464523925   -1.93314673769356    0.09374336580163
C        -5.14145678133833   -0.65931257019313    0.55066487635721
C        -3.83960771204541   -0.42644613243652    0.95267611226992
N        -2.89536974576155   -1.36521173303802    0.92887563398368
C        -3.21952604921152   -2.60270113539996    0.47150291684192
C        -2.11511846711544   -3.51025079680865    0.41307925306513
N        -0.95405569329807   -3.03904273404712    0.74748539596675
C         0.17966297695992   -3.85720618767361    0.67794336768140
C         1.28972936042816   -3.41905508824728   -0.04849364035723
C         2.40878183288613   -4.21921989672430   -0.14258351545656
C         2.42467308042644   -5.45229356837293    0.50570986083603
N         3.58668665609420   -6.29001372948909    0.40373398770334
O         4.52579273564945   -5.88552061367920   -0.25592552386318
O         3.56923059286809   -7.36206466178893    0.97920650419724
C         1.32883940319456   -5.89038138227449    1.24426188373858
C         0.20385668913012   -5.09553488162614    1.32553642987321
C        -4.51191643529022   -2.91481580170193    0.05231243093853
H        -9.54129796279654   -0.48919008628483   -0.60280017371251
H        -9.07571460716222   -1.82368322366466   -1.70647998345813
H        -9.53549186743495   -2.18728517850893   -0.03089665709714
H        -5.87583209557228    0.12816826219634    0.58815013353748
H        -3.54203353920972    0.55001972583587    1.30404737432249
H        -2.24039979132756   -4.52256689357805    0.04699985310858
H         1.24075270407937   -2.47040134071868   -0.55998532891027
H         3.27149864813808   -3.91055278908674   -0.71255901337498
H         1.37449111594234   -6.84934069917150    1.73685000081440
H        -0.65002941808867   -5.42018861288192    1.89912956857599
H        -4.75528359047187   -3.90058485049715   -0.31255162331157
Cl       -0.78698708791443   -0.61700950477216   -1.08805307276968
