71
 energy: -115.991376290078 gnorm: 0.000476860723 xtb: 6.4.1 (afa7bdf)
Ir       -0.43691001113265   -0.90653980793343    1.41374889626863
C        -1.66680338934795    1.16010432697410    3.86522834752190
C        -0.52177116569825    0.43373564498569    3.24918361755292
C        -0.16639703002625   -0.91432247219607    3.62799353814094
C        -0.84536860709299   -1.71303611273997    4.68559043099863
C         1.10853527338548   -1.22304949217662    3.04172525341994
C         1.94373235885836   -2.40663174557789    3.38412045252857
C         1.48097285882961   -0.12385352087520    2.21385067716066
C         2.79285205726617    0.05454531076689    1.52981988674051
C         0.46500583000514    0.91707338892500    2.34554272094823
C         0.66750160950742    2.31588922245892    1.82806182543269
C        -0.49029466791665    2.87400596228893    0.99252265495162
C        -0.11371699782050    4.24922053936895    0.44748340026259
C         0.21567513246876    5.20672212571580    1.59025238507273
C         1.34722558362089    4.64772993510764    2.44908322271434
C         0.98122246028313    3.26943286346629    2.99297081147667
H        -2.55967966536064    0.53901981436622    3.89289879270145
H        -1.89514310278609    2.08576734860591    3.34950953139682
H        -1.40367637133461    1.39985485145183    4.89631731771522
H        -0.66306830563168   -2.77552718400675    4.55322919360039
H        -0.44811236558941   -1.42179628315739    5.65876994262191
H        -1.91645578742011   -1.53358091143163    4.69314284589298
H         1.33119260155423   -3.27878982315397    3.59450104801533
H         2.63621333338796   -2.65439901518814    2.58569249609420
H         2.52229078752055   -2.17414102296008    4.27882726324522
H         3.36847436101225   -0.86561313126756    1.55248662958646
H         2.65347806098872    0.36432021871130    0.49563474417397
H         3.36263303132843    0.82953819413468    2.04224093741733
H         1.54206554073401    2.29597718284160    1.17113413907955
H        -1.39291279253628    2.98028471614558    1.59513530248979
H        -0.69906637049922    2.19352500493324    0.16551693963772
H        -0.93975936353021    4.64803569163722   -0.14475887817192
H         0.75202351402131    4.15759934111250   -0.21196883873025
H        -0.67273785405855    5.35493753427150    2.20877269353497
H         0.50257053817739    6.17947047456823    1.18635772617670
H         1.55217974181038    5.32536950686925    3.28017355317689
H         2.25562985546153    4.57601193171012    1.84660206531533
H         0.11253325700706    3.35946745791952    3.64515019553806
H         1.80794515404493    2.87202252371311    3.58442096486546
C         4.01548901164685   -2.94839461835286   -1.15071596229007
O         3.77547095219400   -4.16198715553545   -0.45929355587922
C         2.57475648678467   -4.35531590040705    0.11148299214814
C         1.54643990001097   -3.42085513185268    0.16710391742013
C         0.32199371610428   -3.75150153343992    0.74980377998124
N        -0.69925128992122   -2.79010295844170    0.74646406983767
C        -1.86993589551315   -3.10424219213895    0.28032719106701
C        -2.85768177224188   -2.07068350475014    0.27210057656812
C        -4.13017726568671   -2.19030561054461   -0.29590591943534
C        -4.97415608466684   -1.10000116264770   -0.29210961000783
C        -4.51123536960054    0.09033752069960    0.27843063231984
C        -5.39468219978768    1.31043919121766    0.28199328087637
F        -4.93745167229257    2.27698485012361    1.08814191087616
F        -5.50620916949728    1.85071567655041   -0.94345691147105
F        -6.64210498618201    1.02671770427348    0.68683667677502
C        -3.23881430352274    0.14546998260672    0.82304223082075
N        -2.43185898012025   -0.90912421014555    0.83416524026308
C         0.11171795569387   -5.00753030306058    1.31188385957533
C         1.14244048331250   -5.93243423128267    1.30104025498454
C         2.34339896465552   -5.60992932296737    0.70607101168681
F         3.33175153178523   -6.52512219890314    0.68607808263298
H         3.29181627212663   -2.80429176325370   -1.95603338296904
H         5.01438558482674   -3.04899413378694   -1.56910346951982
H         3.98792708229517   -2.09409392307348   -0.47109337792602
H         1.65182912812309   -2.44522934328023   -0.28053743488756
H        -2.07373629048064   -4.08373014345007   -0.13478066993723
H        -4.43402853455727   -3.12612628356672   -0.73628958097990
H        -5.96466523379097   -1.15366145340628   -0.71690716285566
H        -2.86298062870351    1.05893965508259    1.26002414961977
H        -0.82950992281979   -5.24623289125705    1.77905764025695
H         1.02065743892898   -6.90918860006888    1.74059595869835
Cl        0.00558199742961   -0.29326060134985   -0.84599914480933
