75
 energy: -127.148483427776 gnorm: 0.000664838497 xtb: 6.4.1 (afa7bdf)
Ir       -0.43976358005318   -0.58683263741891    1.74684043666532
C        -1.70442205689403    1.14997128746569    4.49385275001638
C        -0.56189875595497    0.53467553816015    3.76901363100120
C        -0.13836877253315   -0.82788744718385    3.94338064526105
C         1.13441557797973   -0.98460757855857    3.29070987432330
C         2.07517504352886   -2.11892809179233    3.50159042602432
C         1.42572396382006    0.23295506386716    2.60142321885500
C         0.36836932876154    1.18420051957474    2.90615296150968
C         0.46176038488092    2.62807947445138    2.64514753214587
C         0.48450276095873    3.51354610697495    3.72158630203364
C         0.65188095360900    4.86735547896176    3.50982591769144
C         0.79831297326566    5.37745082993430    2.22131892808769
C         1.00019525375734    6.81685691024494    1.99842661461910
C         1.92832609586372    7.26173030325510    1.05878038110546
C         2.13077096953577    8.61413478079037    0.85410525595987
C         1.40463977613276    9.54477294548142    1.57947093092929
C         0.47577272452732    9.11371909331752    2.51262946057421
C         0.27690533616364    7.76147833071143    2.72372607551642
C         0.76061709853213    4.48859085478669    1.14821732128170
C         0.59571128085432    3.13447819489658    1.35517388133165
C         2.71228194081456    0.57904875474860    1.93922261000096
C        -0.75219012054148   -1.79221665978095    4.90011272121905
H        -1.47882285314978    1.14602271085073    5.56108354403780
H        -2.61957900902545    0.57865948861210    4.35398929894148
H        -1.86936606276997    2.17309229786978    4.17122802549937
H         2.66091334444586   -1.91093053353177    4.39805809382560
H         2.76379214903980   -2.23062544819331    2.66943034925718
H         1.54938871102954   -3.05727054534721    3.65343199197941
H         0.40546466485653    3.13658107132664    4.72949493989916
H         0.69550724965880    5.53695054711741    4.35563975140695
H         2.50990859025041    6.54262443612510    0.50030155136508
H         2.85903994563815    8.94463871124598    0.12729168341603
H         1.56249027867513   10.60113061121322    1.41784703927810
H        -0.09574311277692    9.83610226401627    3.07751442878632
H        -0.46033630072734    7.43435457160845    3.44231884337886
H         0.84513865956933    4.86693451641027    0.14053051011984
H         0.54407687014950    2.46440514680332    0.51098116501296
H         3.21774482145588   -0.30746707956810    1.56723801472868
H         2.55326911528662    1.27110327975433    1.11716183250676
H         3.36007862440604    1.06759931819327    2.66799472887666
H        -1.83209867583367   -1.67857701801481    4.93138764380106
H        -0.50785412848219   -2.81770232073193    4.63806943245683
H        -0.36366441716089   -1.59715339230582    5.90041246715422
C        -6.68831997735467    1.25320682728726   -0.16315078259874
O        -5.35488642873240    1.30730281163298    0.32660969524063
C        -4.62927953874525    0.20126033587510    0.38803912450329
C        -5.02373069789489   -1.08054388009803   -0.00954091192023
C        -4.11867790659362   -2.11563720464873    0.09450485107168
C        -2.84859409957152   -1.88170941329763    0.62098576870377
C        -1.80983615940605   -2.85970401059984    0.63688537073185
N        -0.63474132321727   -2.49049690743954    1.03490586727238
C         0.43393463930317   -3.39557326011067    0.96730984575782
C         0.32053227045819   -4.67867544675574    1.50311345272343
C         1.38213771463352   -5.55894007513108    1.41492926139108
C         2.55282415760048   -5.16339870275179    0.77724709355450
C         3.71003296493394   -6.11942705413025    0.70477804491353
F         4.45499219149321   -6.09405109743094    1.83272233113414
F         4.55514991760897   -5.85032858676609   -0.30241674933289
F         3.32236922387912   -7.39629335238184    0.54915772661870
C         2.67275150101813   -3.88493072555314    0.24314209876358
C         1.61737564980890   -2.99943780849766    0.34572348266482
N        -2.47550235265389   -0.64914291823466    1.06638358787885
C        -3.32513180040698    0.34947652751127    0.91547768655995
Br       -2.80815310540710    2.09614754823751    1.38119370035132
H        -7.30446381948946    0.59746204624703    0.45512409808168
H        -7.05767022620448    2.27398814072773   -0.09658762695189
H        -6.71005828469115    0.92211999983571   -1.20330302001623
H        -6.00702694349067   -1.25471941171181   -0.41461821575528
H        -4.37940716168884   -3.10652953871158   -0.23982577092097
H        -1.98975626680678   -3.85393726084541    0.24276332986216
H        -0.58741390593404   -4.97670603423142    2.00380029719142
H         1.30262095884919   -6.55174825062292    1.82971466369220
H         3.58448605600590   -3.59053913619139   -0.25262996688235
H         1.68368693537436   -2.00845018146294   -0.07633158146582
Cl       -0.03494782419452    0.08021833389042   -0.51377396470481
