75
 energy: -107.609073712199 gnorm: 0.000356419893 xtb: 6.4.1 (afa7bdf)
Ir       -0.02411559601558   -0.89460863793064    1.70863806396334
C        -1.37941189805989    0.40355336529511    4.49550998402989
C        -0.15096445940200   -0.01332229426033    3.76147174797517
C         0.47627184030173   -1.29224450223394    3.85850677234959
C         1.69850023502293   -1.25016918992010    3.09166121980578
C         2.78781105594864   -2.27237699299023    3.11917110512011
C         1.83602795485468    0.06692179926224    2.55387094138807
C         0.66702609722350    0.82224081598432    2.91791487445291
C         0.49337121767902    2.26094759073008    2.67675872498358
C         0.25623707735035    3.13572130606003    3.73602369304933
C         0.13628354642732    4.49250468650073    3.50812900930257
C         0.25353070043380    5.01611969535401    2.22161336556172
C         0.14700886508356    6.46372254167942    1.98499936982893
C         1.02681610413191    7.10262207162083    1.11341839123626
C         0.93694902890366    8.46533749202748    0.89677438536556
C        -0.03839494982427    9.21030284533554    1.53977802376874
C        -0.92222125419283    8.58400151317378    2.40359065081387
C        -0.82807465658792    7.22277719760332    2.62870392418462
C         0.48628647061763    4.13700978590654    1.16494738879946
C         0.60455344413987    2.78004213247975    1.38688206971803
C         3.03815591827021    0.59488225628897    1.85374352226031
C         0.04672746732092   -2.39117065458672    4.76917164288657
H        -1.12944991605467    0.58609307043098    5.54119317158710
H        -2.13666752981101   -0.37673719525023    4.46962592730306
H        -1.79401332815959    1.31578159803557    4.07564265571152
H         3.50169662447998   -2.01007134546082    3.90121774380187
H         3.32152840848069   -2.30215532858772    2.17286487356056
H         2.40040251827803   -3.26257319079658    3.33946790175985
H         0.19801155770053    2.75614323861188    4.74423109885796
H        -0.02291899667487    5.16084220400376    4.34122035066081
H         1.79992177528138    6.53147345227146    0.61992612229704
H         1.63142530924553    8.94958232393759    0.22540165230970
H        -0.10875815421096   10.27456383463841    1.36857036414907
H        -1.68723115974817    9.16037583649153    2.90365363903263
H        -1.52836505231089    6.74084821488681    3.29536590354376
H         0.56096876723498    4.52129677210145    0.15870716891741
H         0.76746081817218    2.10949231593704    0.55636338522274
H         3.05835055209754    0.27142105363139    0.81317454433555
H         3.03511666043789    1.68220332177890    1.86674409676031
H         3.94050295111773    0.22719665402101    2.33850896119702
H        -1.03475573694810   -2.41906574325855    4.87036704478041
H         0.39454718998334   -3.35987889867201    4.42191818453964
H         0.47360686193362   -2.21688193832441    5.75763185759690
C         3.72297153998070   -3.95458007740951   -1.56590455609915
C         3.39045647573114   -4.94781408800578   -0.76251622788746
C         2.19682245903168   -5.01214247945279    0.14375094358941
C         1.28576220037722   -3.79211895887192    0.06734696325129
C         0.10752779202379   -3.91412934105898    1.04306575715111
N        -0.68216081458089   -2.70895545800406    1.01790973553630
C        -1.81929702442747   -2.70756309405345    0.41809294797094
C        -2.54655876211243   -1.46408179064745    0.36910526655449
C        -3.76994035764969   -1.30045068223850   -0.25457241178086
C        -4.38133237342953   -0.03815681288611   -0.25825144257477
O        -5.55962723708535    0.05561682379093   -0.86328347528444
C        -6.23367556104051    1.30610452750113   -0.90110874682150
C        -3.69615777573567    1.01145381306363    0.37319965431411
C        -2.47718445499642    0.76177154993748    0.96782114688710
N        -1.91030425412907   -0.43973270112778    0.98936068361124
H         3.14030356240346   -3.05450420436173   -1.65707885708875
H         4.60762381575239   -4.00398996593458   -2.17837328782295
H         4.01874720862255   -5.82928363241608   -0.71721271465895
H         1.63014333141765   -5.91359492437435   -0.10796366409153
H         2.55899868281112   -5.14226263396118    1.16785241782513
H         0.89706450891147   -3.68348162681115   -0.94565277438235
H         1.85060723640763   -2.89079053442551    0.30486305626637
H        -0.50815488846418   -4.77759098995948    0.77202143254458
H         0.49195197883973   -4.05338415874646    2.05516618354009
H        -2.22953952447722   -3.59866733751949   -0.04578048250839
H        -4.25763942645283   -2.12551214735811   -0.74636506317762
H        -5.64470971549398    2.05344078579331   -1.43703815451803
H        -6.46168681290890    1.65898870640899    0.10680114915878
H        -7.15986090484760    1.11781616349955   -1.43937386684847
H        -4.09570150160384    2.01088393517971    0.40401823615544
H        -1.93139528286212    1.56473777747096    1.44228223751425
Cl        0.65048954996054   -0.44975751670697   -0.53176060512035
