80
 energy: -136.935454763208 gnorm: 0.000794359441 xtb: 6.4.1 (afa7bdf)
Ir       -0.81874567822861   -0.49560773756528    1.32541338604933
C        -1.95131989535914    1.00804491810171    4.16431355283620
C        -0.80434612763212    0.47828242495362    3.37944478436000
C        -0.32466502693121   -0.86618870015304    3.47079046697328
C        -0.84879880386713   -1.90762775135497    4.39851330210143
C         0.89508366275082   -0.95624737537325    2.70832600012581
C         1.86140542342053   -2.08836419491907    2.74475184875688
C         1.13330320116368    0.30869334241035    2.09833503891588
C         2.37269176381022    0.68675418861471    1.36563883447135
C         0.06527051558388    1.20921071229941    2.49886847501973
C         0.15123441916860    2.66505776740039    2.34110342987483
C        -0.03102159725659    3.49708281427447    3.44552209305285
C         0.16752079971864    4.85680437543343    3.30767088392601
F        -0.00293050840349    5.64401660479691    4.38798304418540
C         0.55406356749138    5.43756140630349    2.11336273053923
C         0.72363103323258    4.58844628798095    1.03482692861326
F         1.09606205645264    5.11791305782079   -0.14810838761888
C         0.52653202031247    3.22373448324603    1.11983367507120
H        -2.24959950026589    1.98886216908051    3.80890455043729
H        -1.65644281766909    1.08273077944926    5.21194462097089
H        -2.80334438646883    0.33321907318804    4.11504792228962
H        -0.62307887268138   -2.90651311570663    4.03602519770080
H        -0.37341496852622   -1.78663929805526    5.37242006331975
H        -1.92206898329755   -1.80985455939939    4.53424815262311
H         2.58432375874067   -1.89749062615690    3.53913163976673
H         1.36462313925395   -3.03008650964793    2.95661541840604
H         2.39888204203207   -2.17757925434130    1.80508175570447
H         2.24872344153382    0.55634602003769    0.29078783280318
H         2.61083594676510    1.73257918073477    1.54775641233442
H         3.20387923042828    0.06630557443115    1.68934223493802
H        -0.28055685421643    3.10369358082886    4.41612379350381
H         0.71602591824616    6.49934065965960    2.03365826954788
H         0.64799469954049    2.60988857251654    0.24242501190193
C        -1.34512295999651    7.82784695197209   -0.65388603606796
O        -1.71551497648129    6.47214752625814   -0.41770831237353
C        -2.26762097770999    6.15162778087540    0.75157051592656
O        -2.48961963646441    6.94234499413330    1.64262353148554
C        -2.58537508542132    4.70217826672870    0.83528992105386
C        -2.13921570681009    3.80051307121664   -0.12658413908952
C        -2.46035156328370    2.46098691016299   -0.02252343257650
C        -3.25494735009698    2.00960169306070    1.02899067130437
C        -3.75024169941875    0.62373572828359    1.00140592541441
C        -5.13632782905342    0.43886988996018    0.97265288391692
C        -5.67072539062361   -0.81879355388564    0.75894381646451
C        -4.79927811382047   -1.87616491009240    0.55657083973419
C        -3.43095395348425   -1.64392250451641    0.65595587536435
C        -2.45685079546999   -2.68280011758743    0.49070239446439
N        -1.21632684690027   -2.38318644679448    0.68972514082099
C        -0.23733971594642   -3.38076346968824    0.54974220418770
C        -0.40786680522055   -4.61769536915968    1.17756964425339
C         0.55001805499995   -5.60306396391025    1.02010122849974
C         1.65974232952035   -5.35455525602131    0.23282939268744
S         2.89669424776042   -6.64905396498357    0.01825716410247
C         4.11292265717073   -6.30572565909237    1.31535127509911
O         2.27071146993730   -7.92233860962092    0.28570523802770
O         3.52190994475268   -6.47226809490932   -1.27040731369286
C         1.84061864718173   -4.13249376032107   -0.38959462444822
C         0.89651723675272   -3.13460375953876   -0.22483718058056
N        -2.90998797617478   -0.41357089273763    0.90876243247467
C        -3.71498158615983    2.91757863755957    1.98382633532634
C        -3.36009890221754    4.24869785410578    1.90077417126205
H        -1.93346567568830    8.20031073503609   -1.49187236018852
H        -1.53534732889463    8.42900622615628    0.23663782316631
H        -0.28569380645751    7.84106132211974   -0.90772455252777
H        -1.55444781388682    4.15554903116724   -0.95954399954582
H        -2.12951664964051    1.77002779247175   -0.78010327481047
H        -5.77357778028571    1.30105874694899    1.08690052252071
H        -6.73865187055193   -0.96544650462899    0.72657256129676
H        -5.15813631313967   -2.86869779935902    0.33845503116155
H        -2.75921065261493   -3.67459377264890    0.17289417303651
H        -1.27540607904160   -4.79435352440871    1.79472193513990
H         0.44294060921314   -6.57269153171071    1.47947389339295
H         4.52775646853120   -5.32331958713594    1.13356999791871
H         3.61034860968192   -6.36322166130561    2.27164786292170
H         4.88526681092469   -7.06200775184598    1.24702900292864
H         2.70862477813176   -3.98473500944350   -1.01175526670126
H         1.00451451341459   -2.17960143793989   -0.71504759972262
H        -4.35088106183097    2.58134029437692    2.78851750680951
H        -3.69498475570277    4.96235258007725    2.63773243882706
Cl       -0.29964933865603    0.03181200957484   -0.92872322237467
