72
 energy: -111.604265755551 gnorm: 0.000745265000 xtb: 6.4.1 (afa7bdf)
Ir       -0.31255486297527   -1.26938851004030    1.93914178759177
C        -2.20526715925491    0.59683235266924    4.15048615191012
C        -0.91488689332526   -0.02654196098971    3.74784956869001
C        -0.45361126307746   -1.32090899201873    4.18597334104907
C        -1.20133278188664   -2.23002528744970    5.09983381779347
C         0.93829129694711   -1.43206568729086    3.84894575673291
C         1.86832918584459   -2.47425864813013    4.36379025292919
C         1.30766050232562   -0.27503868360655    3.10252990049858
C         2.68806234428909    0.08440762612490    2.66891203480658
C         0.15325391047459    0.60907700493633    3.05816718122677
C         0.16697723654513    2.00251081479382    2.58646700143968
C         1.10045314112162    2.89086920543254    3.11567080754094
C         1.09733703443946    4.20479906083800    2.68772643819269
F         2.00452068076107    5.05633789660494    3.20820055601072
C         0.20248882342833    4.68126236811482    1.74628448377861
C        -0.70975154375934    3.77401341723791    1.23800908121050
F        -1.59936368981289    4.19591298533985    0.31605158876521
C        -0.74891839439154    2.45260283870037    1.63953690364284
H        -2.39798040848257    1.50535751039823    3.58631214949940
H        -2.14131775340057    0.86287313848355    5.20667502702567
H        -3.03847038785379   -0.09335432415830    4.03964498709697
H        -0.87765769475560   -3.26001780241632    4.98228930390639
H        -1.01342998277250   -1.93198058356749    6.13190605719864
H        -2.27112281068666   -2.17376984306249    4.92163310114532
H         2.20131853301195   -2.17034780937433    5.35733989804109
H         1.37734714010434   -3.43859063065732    4.46427793588216
H         2.74956170070526   -2.56930185191447    3.73584269131798
H         3.22217917429437   -0.78767188409516    2.30109187101151
H         2.66040389180890    0.83390262934310    1.88277572597202
H         3.24575915849169    0.48625726476172    3.51502667728037
H         1.81159505427003    2.57780252845988    3.86186328080954
H         0.21888647273451    5.70803472294897    1.42118724149606
H        -1.45290222632860    1.77987489547914    1.17745408984286
C         2.03672937218578   -4.75427447726451   -1.83905029159540
C         1.96165334662854   -3.34793699663606   -1.25415403292766
C         2.28954064143107   -3.19609569564147    0.23796337363975
C         3.68917617620736   -3.70374859999885    0.63180004856404
C         3.80575103653376   -5.18133044046861    1.00152917331311
C         1.20162876734767   -3.82740145629863    1.13773938369851
N        -0.02387518813697   -3.07857785006058    1.07174310211400
C        -0.96812626543167   -3.49499520350845    0.29666191931571
C        -2.15916661192733   -2.69865074746081    0.21884884237680
C        -3.24337814266140   -2.97596692321011   -0.61000058776868
C        -4.33315539907016   -2.11729818324736   -0.60549421872464
C        -5.49929893966748   -2.42411440405055   -1.49356565806618
O        -5.53507921428766   -3.38251445360753   -2.22804772472398
O        -6.46836808407944   -1.52781391368437   -1.37043136816956
C        -7.63643167320341   -1.72253318651478   -2.16774728999337
C        -4.30019205760928   -0.99915763460902    0.23051798512703
C        -3.18758216022114   -0.79187577699039    1.02389465070303
N        -2.14181853399713   -1.61542049808147    1.03406520460461
H         1.42429086267686   -5.46200374433401   -1.28665451792293
H         1.68080121944936   -4.73577272920241   -2.86693636735860
H         3.06089188630390   -5.11568168268642   -1.85331413711791
H         2.65283625587622   -2.70934904801608   -1.80804931570508
H         0.96246326457364   -2.93846698744315   -1.42323356656979
H         2.26798055483637   -2.11685794495495    0.42877024874726
H         4.36268146708947   -3.49220218986651   -0.19998190425519
H         4.04619062964548   -3.12007826739559    1.48369365856298
H         3.44027586748912   -5.82749793833530    0.21126203464149
H         4.85317830887536   -5.42217251668732    1.17073766762657
H         3.26365267960402   -5.40893827280301    1.91511548863113
H         1.55727707313584   -3.81541439037872    2.16710339308367
H         1.02670258714503   -4.85953387659001    0.82730805960514
H        -0.88335834176700   -4.41278615044881   -0.27389363525838
H        -3.24299787909205   -3.83963050429876   -1.25667947311025
H        -8.28884250620420   -0.88126679959550   -1.95283223264053
H        -8.11877780145246   -2.66455495384828   -1.90241545401688
H        -7.37087485883995   -1.74772296617099   -3.22587885699165
H        -5.12782190971446   -0.31020508370557    0.25848152677100
H        -3.14244688464865    0.06424557100359    1.67977229953916
Cl        0.22817302613927   -0.28670584475359   -0.16108611904088
