66
 energy: -101.635934121898 gnorm: 0.000751753118 xtb: 6.4.1 (afa7bdf)
Ir       -0.57464845369654   -1.15503378567389    1.61114647397431
C        -1.83824077554301    0.82575381979265    4.20735379283297
C        -0.71724050518891    0.09990784112229    3.55335082499739
C        -0.39802383274499   -1.28271901980040    3.82912312197718
C        -1.12425347486270   -2.14078788829708    4.80803851991189
C         0.89968027897621   -1.55850195458974    3.27807240914040
C         1.74462446954672   -2.73543986864038    3.62148900252369
C         1.30040490374437   -0.41016206455575    2.52841986768168
C         2.62622137172357   -0.17591573904699    1.89247642566959
C         0.29744993382605    0.62564516832955    2.71784467171021
C         0.48920831925776    2.04229171029805    2.29566678088509
H        -1.64201362663367    0.86591203376630    5.27925494739650
H        -2.78550829942111    0.31120953637971    4.06379394902665
H        -1.93367766045289    1.83827158940368    3.83131751361560
H        -2.19462135931387   -1.95825684588650    4.76974397472337
H        -0.93471331000143   -3.19458191378295    4.62383747401218
H        -0.77809415087053   -1.90583785851978    5.81536638232475
H         1.15318578476802   -3.64072899915624    3.72717228122832
H         2.51600094146147   -2.90699836982118    2.87742757352806
H         2.23018492571283   -2.53536987007325    4.57772289064279
H         2.50984322251588    0.34009786995333    0.94194034029850
H         3.15707657516744   -1.10818919867358    1.72581160085657
H         3.22764422629498    0.45656662752581    2.54590204485687
H        -0.41447495099335    2.62451397873251    2.44504646100905
H         0.77020543924253    2.09446808958679    1.24611736950253
H         1.29447505354291    2.48476395359633    2.88226814318190
C         5.49087610130495   -8.68656618485139    1.26727648207909
O         4.18673112138641   -8.94647888721188    1.74920405842247
C         3.24552875395035   -7.98550746016536    1.64822089167180
C         1.97328912256443   -8.34088310751240    2.16643037318188
C         0.93712362843507   -7.46045382056406    2.13469125728175
C         1.10164868704872   -6.16894368261660    1.57791181367749
C         0.04877168399233   -5.24531383369492    1.52574504156589
C         0.24663624355704   -3.98085227295927    1.00366772165980
N        -0.78790538133552   -3.04628958124018    0.95224812597577
C        -1.96345935310712   -3.41353361798947    0.53054112457549
C        -2.95887304627715   -2.40211107244939    0.41161068587145
C        -4.19049725637144   -2.59385364210734   -0.22470104553115
C        -5.02457644397500   -1.51441043052857   -0.40222702872089
C        -4.59488674680938   -0.25114142703223    0.02691455279316
C        -5.46040785101416    0.85619527111423   -0.11354522470149
N        -6.19325056991232    1.73058080935633   -0.23086654730867
C        -3.33637986336617   -0.12230906365583    0.63497798832389
S        -2.70773064580252    1.44233826380415    1.14619981523505
C        -2.68517399446364    2.34990083104833   -0.42831600471502
N        -2.56693104200789   -1.18441912004643    0.86784594651309
C         1.51519622822843   -3.61608324061022    0.49690392699712
C         2.53979569425326   -4.51563859778541    0.50658151877343
C         2.37490347487468   -5.80952469131105    1.05506021977641
C         3.43271107576701   -6.73352125087794    1.10123541411230
H         5.94833173846798   -7.84768781400284    1.79866033184340
H         5.48303312916232   -8.48508430511407    0.19258922965768
H         6.05994487580864   -9.59328103857098    1.46221031971700
H         1.86375730754753   -9.32895518598467    2.58464227098784
H        -0.02688188705684   -7.74100285380826    2.53138536756345
H        -0.90986488141874   -5.51867307597055    1.94171915148504
H        -2.15390355547647   -4.42369906830390    0.18953379214762
H        -4.46296850774284   -3.57521681040703   -0.57550857067905
H        -5.99275086505888   -1.61924657942091   -0.86682736964607
H        -3.68789935401658    2.47186679643041   -0.82236091595762
H        -2.03913495549230    1.81671891497895   -1.11942280221616
H        -2.26025502000899    3.32019922255145   -0.19253568401293
H         1.63274448541301   -2.63225802438808    0.06916176112776
H         3.50031686337242   -4.24692454611059    0.09360153148617
H         4.38759192315359   -6.43560066365825    0.69873514320054
Cl       -0.08055696349314   -0.39316700032166   -0.59601150205851
