79
 energy: -120.114680954268 gnorm: 0.000519037881 xtb: 6.4.1 (afa7bdf)
Ir       -0.76597464162566   -1.32934112561308    1.31126096780749
C        -2.04432759160245    0.67070950177051    3.78756121945943
C        -0.88196760264087   -0.01794865197529    3.15537383819168
C        -0.48829204562465   -1.35727527274836    3.51571491375248
C        -1.13886737314903   -2.18743372502427    4.56958076942236
C         0.80388339742684   -1.61509451033534    2.93452885595966
C         1.67370981396221   -2.77365116031815    3.28202082326550
C         1.14404284691554   -0.50176195957950    2.12397336909884
C         2.44290676232658   -0.28232361279764    1.42506132069541
C         0.09124060198267    0.50091109925358    2.25347775171323
C         0.25085640817080    1.90795367878002    1.74356866656536
C        -0.93332307422049    2.44155491902680    0.93023776241967
C        -0.60040328880046    3.82857447108056    0.38685450848938
C        -0.27617314052562    4.78830624629492    1.52946719669902
C         0.88316938777756    4.25315742369921    2.36611497876105
C         0.56176270501738    2.86282757227714    2.90784117730039
H        -2.93278941634975    0.04299634918885    3.76808796908284
H        -2.26763510773864    1.61770421491199    3.31067235210287
H        -1.80035283094153    0.86362868497455    4.83285280802108
H        -0.91937099639186   -3.24165208913081    4.42750063870708
H        -0.75310524027311   -1.89115237944480    5.54576884919338
H        -2.21576534922238   -2.04650926205381    4.57527401151122
H         1.09385790805153   -3.68424554255017    3.40798578733512
H         2.43273338560849   -2.94495709246443    2.52463250777049
H         2.17695910083831   -2.55838440585721    4.22543993031787
H         3.02039782028983   -1.20031006434082    1.36763924395947
H         2.28275288878367    0.08636627625015    0.41368611276337
H         3.02926705222013    0.45883306878287    1.96837665515836
H         1.11529363912375    1.91317751225309    1.07311921986543
H        -1.82452984706642    2.52145996070742    1.55332624284477
H        -1.13997499262636    1.75745022325620    0.10552770505027
H        -1.44326143428805    4.21084480450875   -0.19231050655534
H         0.25731498941932    3.76074164917706   -0.28593588351747
H        -1.15615979414525    4.91123005616799    2.16539580762545
H        -0.01981449247769    5.77016833349943    1.12682723130712
H         1.08701442351620    4.93158743603840    3.19708501066012
H         1.78262765483100    4.20637414622824    1.74763102336204
H        -0.29544719976759    2.92644657226816    3.57853990953191
H         1.40946307052953    2.48262382327808    3.48093973824814
C         3.12434933265767   -8.35391064627857    1.01209716494108
C         3.28423207777599   -6.94152393820658    0.56589512325206
C         4.46676830558879   -6.46840868262848    0.10683189895029
C         4.65619110151435   -5.10228328814250   -0.32759127552016
O         5.69654114135210   -4.63170969501182   -0.73388162985353
O         3.56865768843699   -4.27379022479948   -0.26472067887585
C         2.36646329736455   -4.71198549267214    0.17451252081279
C         1.32779759161443   -3.78568451768527    0.18624909853445
C         0.06813995796172   -4.16888508490583    0.62200545744211
N        -0.97158832077606   -3.23293802661533    0.62106930871054
C        -2.12628775314418   -3.54794155386384    0.11714970857856
C        -3.13505683541967   -2.54153522170136    0.13838043640909
C        -4.41314833066129   -2.67937982134007   -0.41585461952087
C        -5.28109212183174   -1.61510556750158   -0.38637085508432
C        -4.86211606421040   -0.40339852042728    0.19256074871668
C        -5.72910720909613    0.74226601067720    0.22765910776563
C        -5.53308401645063    2.03231984429684    0.68082655927384
C        -6.73547345779601    2.72245211906014    0.44723480853358
C        -7.58195016590355    1.81490887492930   -0.12801567914673
O        -6.98753261558092    0.62872558076154   -0.26418428690038
C        -3.57269377867894   -0.34967953332089    0.73662066969312
N        -2.74097398492922   -1.37770208222555    0.72158590192422
C        -0.14977367359175   -5.48089871105559    1.06527314252733
C         0.88199497081850   -6.38849556790902    1.06206477558243
C         2.16076780704916   -6.03261500881868    0.61158058831996
H         2.81826078089628   -8.38773042178347    2.05602036810169
H         4.06021135338329   -8.89384114384391    0.90453481605418
H         2.36178979738368   -8.85285050036050    0.41705839480104
H         5.34363945264366   -7.09302184871748    0.04313490623644
H         1.50047823350388   -2.78616225124557   -0.17998529070829
H        -2.30343188578917   -4.51120749204927   -0.34681340754617
H        -4.69453258053152   -3.61653618575694   -0.86783771516038
H        -6.27097868731973   -1.69028174336781   -0.80698165491685
H        -4.64273746499246    2.43587065850707    1.11455520442717
H        -6.94765543012901    3.74701610172466    0.67199354168259
H        -8.59452213834826    1.90213313315166   -0.46969338691997
H        -3.21357539128987    0.55920364036389    1.19177653504740
H        -1.12378779571772   -5.76574519705842    1.43072012094689
H         0.70455642368107   -7.39293239070824    1.40907790228061
Cl       -0.32950500872860   -0.72310777294764   -0.96075681336935
