58
 energy: -84.286767752416 gnorm: 0.000818723520 xtb: 6.4.1 (afa7bdf)
Ir       -0.94927601155397   -1.27896974059633    1.30486879718311
C        -2.19399838114460    1.06700045411334    3.48533802413193
C        -1.07400377022724    0.20016572855669    3.01782847991584
C        -0.80147901525669   -1.13151487126447    3.51525601348147
C        -1.57393944829633   -1.81482936085362    4.59291582922660
C         0.49625708665503   -1.52371048620844    3.03790946980543
C         1.26078571524903   -2.71684357451813    3.49741701648527
C         0.95882465220399   -0.51047949034156    2.15025740684579
C         2.31614035416348   -0.40502004461452    1.54127709583210
C        -0.00957923710615    0.57381823284980    2.16251226108348
C         0.22095193014383    1.90272430094497    1.52795322651956
H        -1.90676618511475    1.53096012897131    4.42970705898431
H        -3.09744537291450    0.48851560305991    3.65974560416556
H        -2.40607403651257    1.86131178967868    2.77481060299788
H        -2.63926902310057   -1.62477437539425    4.49555786420212
H        -1.40507919017056   -2.88766170608641    4.57716734798994
H        -1.25019966053098   -1.43456569694176    5.56235731965392
H         0.60073051590080   -3.55107773665937    3.71895366230567
H         1.98522870837522   -3.03534903669754    2.75326272931691
H         1.79901626286016   -2.45806934942549    4.40968666368481
H         2.25311163381879   -0.01174622324645    0.52894516429516
H         2.81348842044642   -1.36993038155029    1.51614700171711
H         2.92258033446953    0.28289860071596    2.13122416796342
H        -0.67842799139769    2.51164418485336    1.53780267977910
H         0.54690799622564    1.78220607397958    0.49635299023299
H         1.00559418562229    2.43068008842625    2.07138507779472
C        -7.73897044749009   -1.34588828772167   -0.76633954122644
O        -6.69329795948753   -2.30740265961065   -0.76494579174494
C        -5.50448392405710   -1.98431833354395   -0.26646289146520
C        -5.15311052503008   -0.73825002866650    0.27577019294463
C        -3.87797490279021   -0.55018568346765    0.76643475429659
N        -2.94612277710641   -1.49761159772400    0.76761302865359
C        -3.25887737123341   -2.70226473124527    0.22357173806223
C        -2.15665154488100   -3.62143696780189    0.19939428033910
N        -1.01963887292464   -3.17974292412274    0.63219225134414
C         0.10595521365150   -4.01223334337684    0.63080545576566
C         1.30825018703071   -3.53678883782816    0.10780284549302
C         2.42153684181901   -4.35178465395272    0.09203809234182
C         2.37612416230254   -5.64335236857975    0.61329103247571
C         3.58607873472804   -6.51960632310783    0.58381362720688
C         1.17307423329974   -6.10273065532612    1.14224146407314
C         0.04437306917789   -5.30761186769089    1.14500931251760
C        -4.51532579966809   -2.97619375603399   -0.28990614035639
H        -8.59303072783099   -1.85085800686555   -1.21170614636488
H        -7.98726329283808   -1.03496236013994    0.25063996005119
H        -7.47325627792608   -0.47632200656220   -1.37110229218943
H        -5.85372782450574    0.07848628630080    0.31503926687165
H        -3.59423604723792    0.40651405857089    1.17685884290649
H        -2.26625330884385   -4.61869556780699   -0.21008242088289
H         1.33692475362508   -2.54532495753807   -0.31614129498761
H         3.34361324032109   -3.98305319023496   -0.33203430762784
H         3.64553132331802   -7.02923174440582   -0.37845531928378
H         4.49451403431648   -5.93453112030279    0.70483832582707
H         3.54124363325306   -7.27707218811974    1.36186053852416
H         1.12091087216828   -7.09807968767841    1.55645446503286
H        -0.87796116708317   -5.67061856362056    1.57228986877596
H        -4.73917471214034   -3.93836447997172   -0.71908473432501
Cl       -0.63341928875199   -0.58337056358131   -0.96189001861814
