61
 energy: -91.248720905300 gnorm: 0.000331205249 xtb: 6.4.1 (afa7bdf)
Ir       -0.26844384016487   -0.64169211493688    1.45013492625923
C        -2.35293859430928    0.94785957285706    3.53364279343356
C        -1.07730844227130    0.21243409376267    3.29163933133846
C        -0.88308242419501   -1.20486675954648    3.48112685819765
C        -1.94293140636657   -2.17701405717228    3.87072959084242
C         0.54815747732666   -1.43720702648790    3.68461241473425
C         1.12908941017087   -2.64368491536137    4.33912062753505
C         1.21319123884188   -0.26633787179078    3.36095939204063
C         2.67762748924489   -0.00805044007951    3.45045109504178
C         0.21322156124049    0.76560975763727    3.04292215879499
C         0.53639431955574    2.22174040817105    2.95816800434682
H        -2.54067966249156    0.96416540798824    4.60788506799616
H        -3.19657299963244    0.45839776136403    3.05368395632745
H        -2.28281200573344    1.96963803983980    3.17953811038241
H        -2.89280840890470   -1.92720465894779    3.40551945714161
H        -1.66655662451515   -3.19189480444315    3.59218346014718
H        -2.07427038687317   -2.15122640129022    4.95364150848880
H         0.52088113204164   -3.53031799479469    4.17828133018070
H         2.14675464384682   -2.83799814847039    4.00663014857434
H         1.16296726444074   -2.46338578444648    5.41553995822621
H         3.02730039324915    0.59242255101647    2.61359404745739
H         3.23857985791529   -0.93863156615147    3.47271266952386
H         2.89326394088877    0.54084834270188    4.36788901026018
H         0.48811906040155    2.65666537195010    3.95687943265900
H        -0.18130544659823    2.73281856448056    2.32589607452740
H         1.53675383258560    2.38016205170748    2.56741219868963
C        -2.45987114609489    3.48480918428369    0.60384862898726
O        -1.88814329931429    2.19509046073964    0.74527306731018
C        -2.53335846372673    1.13618741379119    0.21685197071832
C        -3.74351453759670    1.20985009796123   -0.47096639864674
C        -4.27339005552510    0.05354549692331   -1.03468447468035
N        -3.67195641052298   -1.11269442444110   -1.00379421029970
C        -2.51781052496292   -1.18311532132862   -0.33135882739028
C        -1.72847594940234   -2.38062676854400   -0.39915199198331
N        -0.59807845332489   -2.38626695513683    0.21522749995816
C         0.29450110493154   -3.49397519240179   -0.03090348133482
C         1.23707800276787   -3.88807589393473    1.11040010263068
C         0.80884365927273   -5.35912765672980    0.96318669546541
C         0.27877925274573   -6.01093825067474    2.21645243200142
O        -0.30259558487776   -5.41808599822136    3.09627566090407
O         0.49878016617868   -7.31939625879325    2.20453908148304
C         0.00776411151826   -8.10975214416830    3.28924423886526
C        -0.31016778708438   -4.91243320102559   -0.00782924958880
C        -1.91769245237026   -0.11995634664602    0.35538556879663
H        -2.57785988990380    3.75325497034786   -0.44840495544430
H        -3.42713707607755    3.54874064576686    1.10904045838797
H        -1.76101501879198    4.17370727428264    1.07398149021923
H        -4.27418120179373    2.14103200246593   -0.58205922910255
H        -5.21663002878194    0.08461482303856   -1.56247396640279
H        -2.04732298881428   -3.19458725709897   -1.04009421719848
H         0.83182008344814   -3.28928467148495   -0.96358701827826
H         2.29354434081881   -3.68585786047991    0.95983827079224
H         0.90518213370892   -3.47819109168943    2.05724439614486
H         1.55008231888917   -6.00814325825871    0.50135648187838
H         0.84477877389443   -8.38267327411062    3.93237896488729
H        -0.43933613744437   -9.00322130405726    2.85814421003831
H        -0.73055016360466   -7.54462835992660    3.85965352612464
H        -1.29246460726824   -4.93283701817956    0.46132000458788
H        -0.34468163030509   -5.44134031211626   -0.95592155499456
H         1.47375792965016    1.33989701905497   -0.52574531656358
Cl        1.23101015005070    0.10333405122898   -0.35664848147242
