71
 energy: -115.355831963695 gnorm: 0.000821667028 xtb: 6.4.1 (afa7bdf)
Ir       -0.53669822370173   -0.78624054170311    1.36977141574482
C        -1.95058692531863    1.18782326220021    3.78847199455628
C        -0.75771702760787    0.49768361679446    3.22032153122274
C        -0.39498411548955   -0.84618219935090    3.59451715449869
C        -1.12102286417071   -1.67832561179547    4.59435853024071
C         0.92019451211008   -1.11507781161599    3.07887270838387
C         1.75918627882359   -2.28676613015850    3.45229237087775
C         1.31858364083123    0.00532853674130    2.29766648702580
C         2.65949934682887    0.21531340138245    1.68110791275223
C         0.27194624745113    1.01943314176648    2.38151846760244
C         0.47305001448918    2.43131499017662    1.90084930976811
C        -0.66038639663839    2.98947253740496    1.03344257656060
C        -0.28180861376145    4.38003403295854    0.52970737048221
C        -0.01165447285994    5.31927128376436    1.70282928921702
C         1.09310254404294    4.75907563781345    2.59480136232674
C         0.72833529207617    3.36434218340804    3.09617312333846
H        -2.83986989278400    0.56635238412814    3.70474918931952
H        -2.13370407352877    2.14564888525704    3.31607792333652
H        -1.77086607589674    1.35921844658610    4.85046749748624
H        -0.88673701649783   -2.73173266901769    4.47377343402838
H        -0.81480228933281   -1.37782203686818    5.59706554428323
H        -2.19581841068980   -1.54306108348872    4.51614313595505
H         1.15641757727472   -3.17918859106940    3.59731447744036
H         2.51610038949245   -2.49579407661831    2.70217323578292
H         2.26482190106957   -2.06302248164401    4.39246087279877
H         3.23243935996260   -0.70673757663505    1.66953709924427
H         2.56406404219664    0.58032547445216    0.66046413125105
H         3.21115322880335    0.95734842469601    2.25799877250348
H         1.37239917199972    2.43638593742718    1.27854435021066
H        -1.58230866674960    3.07361743556784    1.60899491109617
H        -0.82730598918852    2.31850944878179    0.18934998909691
H        -1.08643060846693    4.78230258491832   -0.08881587743631
H         0.61115413425838    4.31246280533533   -0.09501679694992
H        -0.92459763447049    5.44380326270668    2.28974216867345
H         0.27760795037683    6.30335984408468    1.32943563118441
H         1.25571249536773    5.42246541345622    3.44659061357083
H         2.02572868182632    4.71270660746570    2.02806488473851
H        -0.16448568442361    3.42661511162490    3.71847759522510
H         1.53883871742300    2.96675054934374    3.70936223500663
C        -5.07266356011825    2.44744593660996    0.43612490664375
O        -5.39381223574742    1.18821455181074   -0.13903340450494
C        -4.53788038016103    0.18212694872000   -0.05559788653730
C        -3.30915179547529    0.21165271820741    0.60985141244659
N        -2.48140342675304   -0.82765228145463    0.64797933541319
C        -2.82206159633632   -1.97502542011357    0.01478173773832
C        -1.81479574590286   -2.98657534053080    0.05007088403819
N        -0.69692393543297   -2.67882654349555    0.62903060557681
C         0.34883413755005   -3.61043462016621    0.67615065087847
C         0.13126714304013   -4.89704103394879    1.16759997316207
C         1.17414605515037   -5.80293387292394    1.21813921140520
C         2.43273977651640   -5.42594969693991    0.76653008401125
C         3.57189879558965   -6.40562618804279    0.78121446501408
F         4.73184687886491   -5.84013349467094    1.16176508655174
F         3.36785788636089   -7.44351137366387    1.60696507247821
F         3.80183669471692   -6.93608060229225   -0.43878261543248
C         2.65368800185121   -4.14675492480800    0.26530499567836
C         1.61613795982335   -3.23613423804732    0.23148204399469
C        -4.04552053556919   -2.10470780255357   -0.65274880522074
C        -4.90289767453742   -1.03176317107661   -0.68509757876789
Br       -6.58252524560500   -1.12357902436139   -1.56759546767221
H        -4.14773310603926    2.84397614083176    0.01327286338628
H        -5.90382878375815    3.09963773667199    0.17716994898835
H        -4.99481402813532    2.36904825815188    1.52202108859960
H        -2.97938677166437    1.10387566022398    1.11830784867071
H        -1.96363953869821   -3.94437914132110   -0.43454208406214
H        -0.84637062925782   -5.17798984552631    1.52631787179603
H         1.01397415414305   -6.79665141850113    1.60593595410318
H         3.63453156178449   -3.87166914897106   -0.08990234033013
H         1.76377669038834   -2.24374362683082   -0.16525168001752
H        -4.29823478060661   -3.02998055364751   -1.14451403549109
Cl        0.02417248888335   -0.14141501761968   -0.86006876497877
