82
 energy: -118.242520116675 gnorm: 0.000549441552 xtb: 6.4.1 (afa7bdf)
Ir       -0.29559680506914   -0.54797602513059    1.82940318826564
C        -2.01087895893313    1.13486009390999    4.30655470198548
C        -0.73890666371547    0.53983262673954    3.81068157544398
C        -0.32670216800217   -0.81515546418946    4.04766891992653
C         1.04213371395130   -0.94404106173265    3.61293033826744
C         1.97119954528095   -2.05076444053503    3.98051643171994
C         1.42418251130989    0.28163331500885    2.99770771054051
C         0.31275754775525    1.21089055359877    3.12181862434173
C         0.43059464999927    2.66330649834108    2.91077309165500
C         0.25786423226385    3.51994289783905    3.99729837067034
C         0.43880047305970    4.88050812143633    3.85087312487956
C         0.79303910261648    5.42765997417917    2.61874589041780
C         1.01373724122001    6.87388572788402    2.47145206132148
C         2.06844857438982    7.34983792783188    1.69457891682783
C         2.28704851893588    8.70837358678174    1.55964785192896
C         1.45309164991396    9.61476433781592    2.19393222846974
C         0.40122868718414    9.15302757924312    2.96825130912858
C         0.18437052046001    7.79449028386838    3.10886959431963
C         0.94663512118160    4.56799599755248    1.53208270303680
C         0.77116612485971    3.20612036681801    1.67397562773630
C         2.79784853390120    0.65591781298784    2.56183766356296
C        -1.07302999842462   -1.79519816113993    4.88869665363100
H        -1.98441756508735    1.16286455138471    5.39638456612979
H        -2.87041051786472    0.53461352783422    4.01535328973022
H        -2.14405929741096    2.14616142600705    3.93399457191292
H         2.53479124929842   -1.74103529856865    4.86197183192033
H         2.68634109810443   -2.25615703367776    3.18833471948384
H         1.43251004563642   -2.95898780611599    4.23401461846694
H         0.01444682664485    3.11446744874010    4.96737478872115
H         0.33192773209072    5.52664683128912    4.70915377843698
H         2.73527143236337    6.65012086173074    1.21179975428821
H         3.11292135167551    9.06282135282969    0.95950210358471
H         1.62360678816392   10.67605423080087    2.08652178253107
H        -0.25313807890890    9.85617847782379    3.46319810441062
H        -0.64727604104419    7.44576239933111    3.70374437700910
H         1.19355480601647    4.97312669892346    0.56222723526291
H         0.87818720623026    2.55920081672884    0.81624395632855
H         3.40820473757518   -0.22422667417144    2.38194635464694
H         2.76989323157319    1.25958710453539    1.65846769622524
H         3.26812200134695    1.24990456853966    3.34653672592240
H        -2.14547554940714   -1.65352641188125    4.79034515803665
H        -0.82712592051168   -2.81901419292231    4.62095989962131
H        -0.80596822588481   -1.64518565813302    5.93556435347922
C         6.22446501765593   -1.79918018523945   -0.52387457885694
C         4.94495142474897   -2.16067592204556    0.22276637847253
C         4.26385692343429   -3.38345339737360   -0.39076630162372
C         3.03380627274042   -3.85411864902109    0.38807285983088
C         1.86984480936148   -2.86940370285641    0.29734281321175
C         0.64583552361674   -3.38924647495171    1.06207044896214
N        -0.42148890176205   -2.42219249104599    1.04478880100816
C        -1.52087684750104   -2.71140075926600    0.44061166585982
C        -2.53391983737759   -1.70000452168855    0.36476584064181
C        -3.78211487998570   -1.91966017966936   -0.25061003008860
C        -4.68440444135338   -0.89714230129382   -0.30945973732400
C        -4.31504978531314    0.37607398151350    0.17971599921251
C        -5.17638982582890    1.48430045823061    0.08609648067639
C        -4.76038264301770    2.71919506895045    0.51353369506124
Cl       -5.81403300105918    4.08602129870667    0.39416841429335
C        -3.46432498692445    2.89759189023046    1.02808876546624
C        -2.62065780795764    1.82889246599075    1.15210800341374
C        -3.02121587234759    0.53626410608641    0.76019048040079
N        -2.18721422200401   -0.52291848113139    0.90453520129362
H         6.93116745292282   -2.62646829638819   -0.49935352082441
H         6.00705332455227   -1.56845837528959   -1.56465172272391
H         6.69999985092652   -0.93060689745215   -0.07368715062084
H         4.26822668775738   -1.30563245371799    0.19050298572235
H         5.18959055907325   -2.36927270079543    1.26736243213997
H         3.97728933815073   -3.15570576190390   -1.41957413100803
H         4.98635639481807   -4.20231301264212   -0.42569871159230
H         3.31119930801159   -4.00952933370330    1.43290071087554
H         2.71678110205910   -4.81832073148923   -0.01498435700504
H         2.15742325211186   -1.89943140881707    0.70200677711303
H         1.59866092592496   -2.71807265595891   -0.74802731177601
H         0.92798906372489   -3.57557650916831    2.09970972038938
H         0.30804562777615   -4.32983543111055    0.61594753275810
H        -1.68070490232073   -3.67627759258627   -0.02964991894100
H        -4.00299985232017   -2.89446946751999   -0.65332327217914
H        -5.66293646330180   -1.03529971648180   -0.74206004623226
H        -6.15799778661996    1.35147297632624   -0.33983379762821
H        -3.14063969356942    3.88432476243890    1.31651788656837
H        -1.61406089400577    1.97796061764503    1.50553953476432
Cl        0.46257432048383    0.21464401435205   -0.29748608393396
