72
 energy: -111.299205339648 gnorm: 0.000553040691 xtb: 6.4.1 (afa7bdf)
Ir       -0.83793599527546   -0.74365312542613    1.57106375161089
C        -2.13190741652752    0.99744715628328    4.31361952212530
C        -0.98056828365685    0.38572044118164    3.59855750351238
C        -0.56220392360061   -0.98300970460764    3.76745788882733
C         0.72086243799252   -1.13410850092342    3.13902999775021
C         1.66813740543150   -2.26117901131762    3.36018178630561
C         1.01311665935442    0.08292658978556    2.44806573663459
C        -0.04184111738693    1.03780437029748    2.75595234068651
C         0.05499040957311    2.48213672681246    2.50217278137337
C         0.06382365601790    3.36197395383856    3.58360836549886
C         0.24049286809466    4.71587435177187    3.38263245358053
C         0.41327688554855    5.23189585912457    2.09964063726117
C         0.63556551175035    6.67066538175588    1.89192114145099
C         1.59132321930246    7.11237390820909    0.97893079218396
C         1.81577078422547    8.46400070666655    0.79262047105507
C         1.08436948463461    9.39694872383551    1.50976382936941
C         0.12774107051504    8.96907152966014    2.41602359036079
C        -0.09303480046583    7.61751202830220    2.60891227146190
C         0.38617810479785    4.34993205335439    1.02082338561863
C         0.20917701839469    2.99535625317152    1.21719242455373
C         2.31298375230512    0.42480420725572    1.80771733425905
C        -1.18763675486342   -1.95112150813055    4.71438298974192
H        -1.91405952054135    1.00256346059062    5.38245782923845
H        -3.04283282400843    0.41984146243809    4.17087036248858
H        -2.30154401381409    2.01762085034363    3.98378347779906
H         2.24620377315908   -2.04611398346139    4.25991108575244
H         2.36132421385728   -2.36852052382965    2.53128582750399
H         1.14804228966662   -3.20312998409734    3.50943489619406
H        -0.03432930340815    2.97890324248777    4.58769656061551
H         0.27236766829079    5.38107957684762    4.23259663137626
H         2.17685518084909    6.39079772750610    0.42760492304058
H         2.56589544176038    8.79236750644570    0.08739670963048
H         1.25932184848346   10.45274503513610    1.36288032286314
H        -0.44803919827713    9.69325157598074    2.97433291396369
H        -0.85106416723943    7.29260586476949    3.30662435672983
H         0.49000716349991    4.73391212610189    0.01685887036875
H         0.16526016044442    2.33064934709229    0.36803773242123
H         2.75154808168451   -0.44095752241161    1.31886687975467
H         2.18974531231865    1.22093099631064    1.07927382148916
H         3.00319885295235    0.77153122850407    2.57773069392616
H        -2.26753244577385   -1.83378267568893    4.73774730783293
H        -0.94626365924933   -2.97569836071394    4.44527461757669
H        -0.80602412629058   -1.76599359843331    5.71915728861297
C        -7.11743751331401    0.96894803336461   -0.32617552908009
O        -5.78900625945520    1.05209042187838    0.17183174184238
C        -5.04512847002876   -0.04463241016941    0.24846725944228
C        -5.42411994849149   -1.33948477324933   -0.11890352297303
C        -4.50181743551591   -2.35960225620292   -0.00814449198254
C        -3.22901540766388   -2.09541983414110    0.49515980415091
C        -2.16365894920982   -3.04756571247126    0.51008912663965
N        -0.99032477611302   -2.63509872853703    0.86675299742249
C         0.10349136994872   -3.51094727065598    0.80120935637981
C         1.27523927734887   -3.08406396290579    0.17719822688172
C         2.34929844502906   -3.94799920383858    0.07223295352396
C         2.27580403420722   -5.22467690915586    0.61027447560531
C         1.11676061733250   -5.64274178810561    1.24658538927806
C         0.02656862608828   -4.79679639193794    1.33656364380874
N        -2.87368370431837   -0.85081623768014    0.91630968052577
C        -3.73996734816869    0.13254727025020    0.75913834672128
Br       -3.23999326366151    1.89451542322412    1.19335671164160
H        -7.73059938677752    0.31922847810534    0.30189156940554
H        -7.50040545419263    1.98609747512610   -0.28534119529553
H        -7.12623453774051    0.61437584780994   -1.35917323042688
H        -6.40998300148354   -1.53745078321371   -0.50646853028388
H        -4.75219651915333   -3.36014068242668   -0.32093740041072
H        -2.32560856759571   -4.05649349006669    0.14780880614057
H         1.30984188110051   -2.09229965041679   -0.24718782441198
H         3.24784756817372   -3.62426367822800   -0.43011976526751
H         3.12085901350488   -5.89086419897367    0.53507946609355
H         1.06081338872840   -6.63262804480662    1.67238852952467
H        -0.87314561493936   -5.11474822989130    1.84131247096775
Cl       -0.48671576815247   -0.02003245550748   -0.68603117025071
