68
 energy: -111.860299089443 gnorm: 0.000507111134 xtb: 6.4.1 (afa7bdf)
Ir       -0.52223775667753   -0.37629022316065    1.63275030929069
C        -1.97439896260107    1.39796706188868    4.25475795791162
C        -0.77804804819506    0.78912112240380    3.61864028962583
C        -0.34453751049243   -0.56426322135215    3.85123991394434
C         0.96550987794947   -0.71595028009496    3.28024068144432
C         1.90825791289980   -1.82807795474402    3.57624917582202
C         1.27875239151668    0.49175374962499    2.57588952682944
C         0.19357387440413    1.43549336144075    2.80124836184396
C         0.28584934392163    2.87693194142472    2.52621767271192
C         0.21880411225163    3.77349269708012    3.59195305269438
C         0.39058010456783    5.12620619492622    3.37873109861452
C         0.63145203840452    5.62503429972624    2.09972260171711
C         0.84907388561752    7.06278889056025    1.88153743826111
C         1.83936740669276    7.50075304663275    1.00396358528874
C         2.05939723261067    8.85171509634036    0.80788445712470
C         1.29006368027772    9.78772385320961    1.47991689258081
C         0.29977667009714    9.36356619898299    2.35110746612998
C         0.08264640706633    8.01288046795942    2.55373616818730
C         0.67763958433069    4.72543881149566    1.03575648585196
C         0.50845968026729    3.37186740168378    1.24389364625062
C         2.59698232412209    0.84450734957145    1.98587198565362
C        -1.00098362713169   -1.51548395693379    4.79150683382958
H        -1.82186212444614    1.41133038562918    5.33495807096315
H        -2.87080962975462    0.81167331971882    4.06304814229986
H        -2.13101560535743    2.41413139609691    3.90690232687187
H         2.41314875708523   -1.59971591697802    4.51627607506905
H         2.66423436997757   -1.92969125740695    2.80396660847591
H         1.39127677634985   -2.77622168972492    3.69406456293817
H         0.06952245074526    3.40655444722467    4.59549837764323
H         0.36530945723856    5.80389722169968    4.21861713717640
H         2.45526848442030    6.77794875213591    0.48886976446000
H         2.83538494465015    9.17737256059432    0.13013650654155
H         1.46163094500090   10.84291895585977    1.32487449614487
H        -0.30512234181129   10.09002383320556    2.87441584245808
H        -0.70148759512721    7.69175124421497    3.22354723187202
H         0.83373006605912    5.09420507879878    0.03315149397940
H         0.52305508271118    2.69390970234990    0.40463617230882
H         3.14613939070173   -0.04175309776553    1.68192471830189
H         2.47741494870992    1.50356381000441    1.13070906764580
H         3.18167734165506    1.37600768123928    2.73779429881489
H        -2.08241295574293   -1.41790712120577    4.75730667199879
H        -0.72689201843503   -2.54266285097961    4.56884917321107
H        -0.67473772308563   -1.29155987848479    5.80788888331849
F        -4.35853173617829   -3.23495657402200   -0.57660794416778
C        -4.08880606273654   -1.99011132027940   -0.17723306663687
C        -5.00936292518661   -0.97616496350434   -0.36353941844532
C        -4.64191245856624    0.30203989280880    0.02888491291802
C        -3.39596583004153    0.50235250907203    0.61222906471830
Br       -2.88495331266746    2.25595257434566    1.06399693581745
N        -2.53292098635571   -0.48246260296965    0.84984852235935
C        -2.84859819405515   -1.73007005040636    0.42027312329085
C        -1.80126979343668   -2.69507565476688    0.52411520011322
N        -0.65000711334884   -2.28132867317845    0.95408743690839
C         0.43549535594058   -3.16522485430959    0.96289916624521
C         0.31343531772535   -4.46047539076783    1.47069951001543
C         1.39607070446359   -5.31783235345203    1.44682132622902
C         2.59593778034010   -4.89024424948290    0.89427414296560
Br        4.09340091440227   -6.08754981074410    0.84160321277089
C         2.72823434298277   -3.60609894226584    0.38207655120478
C         1.65398098499428   -2.74036073365728    0.42987511781434
H        -5.96645646404306   -1.17836974481793   -0.81774808615481
H        -5.30674249390038    1.13844173278849   -0.11401614853628
H        -1.95521076684357   -3.70638534235351    0.16496259426695
H        -0.61803503852784   -4.78518981881143    1.90851318687602
H         1.30954268142528   -6.31378593853613    1.85032183521427
H         3.66345243900972   -3.28970544066040   -0.05091570973552
H         1.73018417799705   -1.74487481646388    0.01921541633685
Cl       -0.03282416683912    0.29981308154816   -0.60593710649057
