75
 energy: -114.150051843599 gnorm: 0.000221420219 xtb: 6.4.1 (afa7bdf)
Ir       -0.21239772617701   -0.41847416787161    1.38107054485517
C        -1.65046514242328    1.44742672316593    3.86431133531238
C        -0.43652904079791    0.79424969308092    3.29831762483407
C        -0.00764350186489   -0.54937215090819    3.58661260393274
C         1.31240173436165   -0.72066198548481    3.03413496570693
C         2.22693793713318   -1.85499834585264    3.34426531314445
C         1.63082174706423    0.44736764448656    2.29019249611275
C         0.54117649377810    1.40228700124978    2.46600105405384
C         0.62791277393541    2.83359111806524    2.13487096387683
C         0.58926701901653    3.76650757658337    3.17071227851249
C         0.73673266829845    5.11316684361050    2.90578360698196
C         0.92270143257586    5.57003085288959    1.60189491291011
C         1.10038180689657    7.00336701946515    1.32465890530041
C         2.03768869536451    7.43049577761408    0.38567946925119
C         2.21711017051353    8.77766210481445    0.13130060279958
C         1.45933477796734    9.72123110801253    0.80581315537437
C         0.52164622938715    9.30815850627402    1.73823608241436
C         0.34526136015045    7.96147856412367    1.99836771032016
C         0.94624911779638    4.63359372864638    0.56949124036579
C         0.80359040257404    3.28538219121610    0.83008999081472
C         2.94842448073991    0.78698600166133    1.68236999729995
C        -0.66499056022863   -1.46553543474790    4.56280308791091
H        -1.48930926736875    1.63294790595866    4.92662222122153
H        -2.52741383667839    0.80993938550058    3.77291609202733
H        -1.83936826741135    2.39989272525411    3.37588158656357
H         2.72418930062274   -1.65056338512478    4.29327029059059
H         2.98810093998991   -1.97320197898669    2.57895442374473
H         1.68335040074484   -2.79105910820424    3.44186711382498
H         0.47432541725803    3.43142563713423    4.19044394722776
H         0.73350651241962    5.81960344921867    3.72238092053944
H         2.64493420907130    6.70268465221582   -0.13272733984912
H         2.95265460371922    9.09418487552866   -0.59436685875141
H         1.59912486146493   10.77345478526957    0.60549107613633
H        -0.07460912507085   10.04008335384881    2.26394680639164
H        -0.39875434267247    7.64965116824799    2.71692470000899
H         1.06383832719514    4.96733745210435   -0.45062290973489
H         0.80242519452354    2.57725313164506    0.01608949731566
H         3.53665546822850   -0.10563020757966    1.49070356637834
H         2.81636211522568    1.33223158294761    0.75131759208772
H         3.50097721394004    1.42898775586567    2.36928873998869
H        -1.74533737278987   -1.35188784586333    4.54158756481962
H        -0.41268279434752   -2.50258656846856    4.35957183824799
H        -0.31872428789373   -1.22504024435961    5.56871952056493
C        -1.47864699612292   -2.67148201061965    0.16899847524351
N        -0.33221439642878   -2.30334770813821    0.64863887135546
C         0.75828163341453   -3.18280238035472    0.62636663100222
C         1.99023543212503   -2.72824913862142    0.15694569603019
C         3.06764705930185   -3.59278416878883    0.11061232632694
C         2.93513757158746   -4.90096769744019    0.55250935243362
C         1.71393726433611   -5.34879251025949    1.03300291434275
C         0.62262804143454   -4.50053376842925    1.06408113458557
C        -2.53326989687896   -1.70923777649084    0.20350458771511
C        -3.81205035379583   -1.90149232189943   -0.32970139785367
C        -4.72334614560428   -0.87402202652314   -0.28102550237815
C        -4.34633497317204    0.35564018782751    0.28786071109092
C        -5.27168619636602    1.45473046638341    0.35090124157609
C        -5.14020472035917    2.74935178054329    0.81236397943665
C        -6.38925572734842    3.36733302909204    0.61977147777992
C        -7.19569520802748    2.41660448520331    0.05857238985997
O        -6.53496177067926    1.26931462459015   -0.10704336012695
C        -3.04709546950136    0.46854778736000    0.79817158353877
N        -2.17907732960715   -0.52860321490991    0.77394597963543
H        -1.62081041807602   -3.64446558571879   -0.28675680528228
H         2.07173548806287   -1.71310418976184   -0.20062579189839
H         4.01521134057676   -3.24514129729673   -0.27143247765422
H         3.78178859006340   -5.56893013002355    0.52400854692585
H         1.60977037801867   -6.36421867637519    1.38261199486078
H        -0.32591221788071   -4.84171840324281    1.45024036296792
H        -4.06239926276618   -2.84958030741829   -0.77702200016188
H        -5.71778282047768   -0.99118488889452   -0.68074107989328
H        -4.26526521805029    3.20334443290833    1.22811055635837
H        -6.65605468233901    4.37511698854263    0.86171319157916
H        -8.22095727922803    2.44487674694043   -0.25401087308523
H        -2.71096750550547    1.39706396104568    1.23312182856993
Cl        0.18508464302977    0.24383281854491   -0.88720487630957
