78
 energy: -119.905767964366 gnorm: 0.000503466503 xtb: 6.4.1 (afa7bdf)
Ir       -0.45441712631052   -1.03811520265278    1.65268105621742
C        -1.64728633613545    1.03183472362942    4.13093099333167
C        -0.51166680994110    0.34072346999152    3.45799654007892
C        -0.06508873424196   -0.97385841454644    3.84790559711398
C        -0.64394846606439   -1.77966524405900    4.95894678004748
C         1.19470588260494   -1.22986810659428    3.20220775313646
C         2.10455819606151   -2.36025603766981    3.53489288649151
C         1.46515396073002   -0.13943832407709    2.32972374251226
C         2.72537433338280    0.08653644347562    1.56570966202778
C         0.39901225559361    0.84739601022352    2.48525151958225
C         0.49378669117936    2.23686594166602    1.91561613024696
C        -0.74707483077986    2.71225849508672    1.15177340896110
C        -0.47580302611543    4.08305204963622    0.53721065788118
C        -0.11155243764108    5.09362304973605    1.62249235348527
C         1.10173457722008    4.61592131039587    2.41642634225287
C         0.84176586098196    3.24135516450522    3.02680154282963
H        -2.50862191185787    0.37440342670240    4.22808975406537
H        -1.94435630422947    1.93577151782357    3.61224081547522
H        -1.32911430396554    1.30499685633430    5.13803322568959
H        -0.40901438935321   -2.83407292619458    4.84429429109009
H        -0.21760894735782   -1.44054260614232    5.90383661191449
H        -1.72223239552013   -1.66128540947026    5.01459592857573
H         1.54854422989946   -3.27040100066123    3.74349524178029
H         2.80819815883899   -2.55761556422231    2.73231552859778
H         2.66848255652839   -2.09701949154220    4.43037517315703
H         3.32604751734374   -0.81666999404572    1.52841067850336
H         2.50949582547997    0.40668534935143    0.54845598179362
H         3.30683377964181    0.86933545743858    2.05284676804384
H         1.31952189742922    2.23767895046754    1.19826828777595
H        -1.60541376923727    2.79904323337240    1.81785279066454
H        -0.98353055115485    1.99277820742132    0.36657005859386
H        -1.35953080133785    4.42385580421175   -0.00576834106738
H         0.34397631124573    4.00727410476702   -0.18045757548529
H        -0.95995250607576    5.22480598982506    2.29840976746704
H         0.10214012485195    6.06365507075333    1.16922081124842
H         1.33101178572581    5.33046014650210    3.20946170920594
H         1.96900000437038    4.56522503388662    1.75421201469342
H         0.01816967752680    3.31225650360755    3.73734206229366
H         1.72621281731210    2.90190774384584    3.56879107999518
C        -8.49286638089948   -0.77574205750715   -0.76254798616555
O        -7.15855332927014   -0.69121781618419   -0.26204343907414
C        -6.40138024318175   -1.77410107906194   -0.36652785863105
O        -6.75589581914856   -2.82167562916891   -0.85277248575160
C        -5.02807760581377   -1.55189789812400    0.18785398798384
C        -4.63715126372289   -0.33709190956694    0.75782203606359
C        -3.34705620207508   -0.20692184316344    1.23521770399423
N        -2.45450175994378   -1.19408949646997    1.18437672590676
C        -2.82071036720232   -2.37703774347989    0.62692486597952
C        -1.76449365570712   -3.34152248746302    0.56929211086657
N        -0.60393092027859   -2.96076395214961    1.00207953890648
C         0.48445862642994   -3.83987952125928    0.95088029449220
C         1.69146964816187   -3.40166948336296    0.39164227892556
C         2.76379938041799   -4.25753690496574    0.31471291992394
C         2.68498381950083   -5.56715655108351    0.80965566651986
C         3.77585055381875   -6.51583433094219    0.76828060865597
C         5.08796419841398   -6.12472541487572    0.18079489442854
C         3.56199396941212   -7.75341500484377    1.27436368140798
C         2.30328082400380   -8.16377220236610    1.85658608358982
O         2.06617306616141   -9.25644731723886    2.32307582859458
O         1.29984290217806   -7.23237860504934    1.88308412261745
C         1.47050041106395   -5.99043936579381    1.37779728279932
C         0.37387986330150   -5.13412830135986    1.44065559939736
C        -4.10375615555921   -2.58336234415680    0.12252916657394
H        -8.49110057958081   -1.17491279428626   -1.77795072392686
H        -8.88328664740266    0.23771064738858   -0.74418752083967
H        -9.08990958468584   -1.43030555418046   -0.12564115424867
H        -5.33039303934812    0.48487106540272    0.82213160377826
H        -3.01357252991795    0.72350229826717    1.66891378625577
H        -1.92265624537747   -4.32092543121470    0.13341068745100
H         1.74657279632761   -2.40257100235248   -0.01188949179089
H         3.68122736355557   -3.91787767898213   -0.13660217029879
H         4.96219443740179   -5.82395659818641   -0.85773892412290
H         5.51259257858933   -5.28562080036832    0.72875095732934
H         5.78438813705874   -6.95674402998818    0.22168104396054
H         4.33129605584655   -8.50909801175644    1.27138861594611
H        -0.53797482680526   -5.48957178556161    1.89332864450029
H        -4.37911415469351   -3.52601635768827   -0.32404565775710
Cl       -0.18194811748709   -0.46158043962953   -0.64768895458756
