69
 energy: -103.196424601558 gnorm: 0.000938385641 xtb: 6.4.1 (afa7bdf)
Ir       -0.59163298752852   -0.55543658685898    1.44297596108152
C        -1.89680047617368    1.81807059535819    3.76588192999143
C        -0.83556626100213    0.90710372161971    3.25577833802271
C        -0.76485525481583   -0.48147565567639    3.67210620789408
C        -1.74484076508112   -1.13647841820214    4.58357179207218
C         0.53318583160777   -0.98001146549843    3.34740114642953
C         1.13333727665909   -2.23456853352565    3.87820768510214
C         1.19638597945705    0.02715812136851    2.57038891122293
C         2.62876940981241   -0.00188732376848    2.15638088669884
C         0.35753140400250    1.22230834029284    2.56344021256194
C         0.87990968085033    2.56548044936766    2.13414696781613
C        -0.01264433083778    3.33796666798864    1.15882878347188
C         0.67146859887816    4.63931512034749    0.75009273121847
C         0.96705068988551    5.49786639917418    1.97701696941833
C         1.84100022176411    4.73040484669100    2.96509435040511
C         1.16701837159825    3.42481900142695    3.37796414372215
H        -2.88188175020082    1.36740805383333    3.67904522041970
H        -1.90216240725432    2.77227573749447    3.25424090622673
H        -1.70566352342055    1.99061227577482    4.82645221778878
H        -1.65671669501690   -2.21817427945236    4.54571514298937
H        -1.54803695639723   -0.81545068577422    5.60715599238432
H        -2.76432746840430   -0.85477404800511    4.33508251095942
H         0.39566186109790   -3.02695489460379    3.96924978393017
H         1.95422818706287   -2.58478021987546    3.26007543913544
H         1.52473092724896   -2.02482369004986    4.87464725278366
H         3.01698606296677   -1.01568543486934    2.16223699883548
H         2.75600943723856    0.41660756921746    1.16084643759970
H         3.21566250017454    0.59612636166248    2.85384951036368
H         1.83151034981402    2.39800577668033    1.62147414481432
H        -0.97176609323996    3.57397192359009    1.61913103344998
H        -0.19591708628223    2.72082202345884    0.27907257669904
H         0.03231982780093    5.19030988267454    0.05723944543740
H         1.60516058729924    4.41567971216764    0.22922630318076
H         0.02830890597235    5.77734495948253    2.46139974845413
H         1.46995203371090    6.41837038497008    1.67419895212626
H         2.02612310698006    5.34189700936880    3.85066047740229
H         2.80691022967132    4.51637218680792    2.50171613301021
H         0.23454896634602    3.64985912464496    3.89492866356982
H         1.81170749545281    2.87605229002552    4.06706810730206
C        -3.84226863430077    2.88704418037158   -0.33490430503791
S        -2.98868719873567    1.74218841600323    0.78758059407189
C        -3.46723945554533    0.14999388869056    0.29674914427617
N        -2.55515197969154   -0.80136109826839    0.54323850932233
C        -2.75210075344960   -2.05323550654420    0.06858147672032
C        -1.63862688555599   -2.93036646557175    0.23957288775568
N        -0.55729674768125   -2.44041695745176    0.76176193405289
C         0.57779354985009   -3.25940758518459    0.86198002525683
C         1.79794223462051   -2.79846261169553    0.36715123704341
C         2.91982059187720   -3.60105442523425    0.43510867080144
C         2.82647932158103   -4.85974453897511    1.01438087625167
Br        4.38970193903738   -5.96920072668414    1.12659314140913
C         1.61980184628418   -5.32742282288225    1.51564833818904
C         0.49370660468940   -4.53162217883694    1.43038235964648
C        -3.91220108597652   -2.41995459534177   -0.61734886759164
C        -4.90789624361459   -1.48086408123903   -0.77572293020843
C        -4.70020606564620   -0.17849285860149   -0.30958091319414
C        -5.78581229550661    0.71943643865541   -0.39105851401203
N        -6.72210494512202    1.38089274050023   -0.44171359222720
H        -4.83396505599863    3.12909905285844    0.03010109183962
H        -3.22007212106986    3.77805793516869   -0.34356501710732
H        -3.88278649568694    2.46071727976801   -1.33196140443036
H        -1.67639125262230   -3.94651410546654   -0.13502781342328
H         1.84280195810047   -1.82641216502311   -0.09852390162335
H         3.86113953436396   -3.25418334131446    0.04032894883294
H         1.56249348258906   -6.30442574337708    1.96751187698844
H        -0.44514916250409   -4.88511490392174    1.82762490001963
H        -4.01942965642574   -3.42024786566437   -1.00158839116727
H        -5.84406960211946   -1.72975423909923   -1.25144579116774
Cl        0.02834268659800    0.16104758510593   -0.73153058726758
