70
 energy: -104.410277437039 gnorm: 0.000634224028 xtb: 6.4.1 (afa7bdf)
Ir       -0.61263818572853   -0.99804505166381    1.71933113724902
C        -2.38295784649538    0.73983177982424    4.10375139274042
C        -1.09909191402837    0.15553683062479    3.62536381154456
C        -0.69683760060444   -1.19359681443233    3.94528541412683
C        -1.46579761140534   -2.13003353438830    4.81301158085547
C         0.67706955264136   -1.35396737636175    3.55131439645251
C         1.57586237026805   -2.46881104702703    3.96379672686878
C         1.07956355147459   -0.15715003712523    2.88850764682420
C         2.46385104614761    0.16576284905365    2.44163621078548
C        -0.02830789306854    0.79007878454354    2.93709940839080
C         0.13771153593622    2.24357235314928    2.58396586852947
C        -0.91327081502864    2.80865830193456    1.62228410121249
C        -0.55902272083299    4.25022859533233    1.26639992808172
C        -0.49288334343483    5.11054909442330    2.52608171230649
C         0.52607209933359    4.54130474634274    3.51006922758138
C         0.18734979876520    3.09557539233082    3.86310192566915
H        -3.21650114317587    0.06272995084205    3.92800062456516
H        -2.60064636060579    1.69602132415446    3.64144271402041
H        -2.30822404584866    0.89247945254387    5.18135097851520
H        -1.19689263071687   -3.16383710300365    4.61665900382234
H        -1.23925041664058   -1.91339373816290    5.85780043737944
H        -2.53592436068825   -2.01290211668654    4.66985894534692
H         2.09235839149152   -2.16870771115968    4.87686668250163
H         1.01678622591955   -3.37402383457003    4.18141141431893
H         2.33102836070542   -2.67584537297162    3.21062258631437
H         3.08068074785754   -0.72657363316047    2.39497025125251
H         2.45677888872863    0.63574344553447    1.46052566770741
H         2.91704920685719    0.86107658400623    3.14836846460402
H         1.10394644904404    2.34575416162342    2.08102435476069
H        -1.90430310491066    2.80373709371959    2.07783513142609
H        -0.94048064574904    2.19975092981577    0.71709295497185
H        -1.30505141030469    4.65399655511787    0.57888419205608
H         0.40699988616624    4.27492202659541    0.75726240818378
H        -1.47840041143359    5.14226789484334    2.99742383642701
H        -0.22060832194039    6.13425936023864    2.26191429877126
H         0.54158453426953    5.14571671167114    4.41914208822269
H         1.52209791291922    4.58697834290333    3.06360142575504
H        -0.77817412356847    3.06607367968242    4.36833270158993
H         0.93812842139320    2.69494667206350    4.54656320676337
C         4.27063012268453   -2.67891781467170   -1.04953247161032
C         4.08610831936843   -3.79275585783107   -0.36552125447472
C         2.82381813520218   -4.23508098451174    0.31415634221653
C         1.66178745302300   -3.25646137371301    0.17796637711223
C         0.41150866226875   -3.78503175361775    0.89760105994715
N        -0.65251938181091   -2.81723161541211    0.82008452016573
C        -1.62997649277722   -3.02933315246725    0.00281775716274
C        -2.64174183917952   -2.01946810750861   -0.09477588075708
C        -3.72105358936363   -2.05675183656199   -0.98160746456654
C        -4.60999673237950   -1.00253346962449   -1.00510239486668
C        -4.38548876006259    0.06662353161862   -0.13251187087683
C        -5.30789709867721    1.25613184507714   -0.14530504172667
F        -5.21244972852908    1.99307441290577    0.96987480278010
F        -6.59520715624959    0.90027625440111   -0.26712025659872
F        -5.04456836529889    2.08253054335480   -1.17289039868962
C        -3.29682033590265    0.04184519392394    0.72370003914966
N        -2.44693130885672   -0.97766155115553    0.75324407844113
H         5.22066554189842   -2.45453767964331   -1.50448806440670
H         3.49803750063717   -1.94361028627383   -1.19306885143838
H         4.90452828721467   -4.49462555464568   -0.25919379725280
H         2.54037457353474   -5.20502677036373   -0.10509962585139
H         3.04973200247183   -4.40497161001316    1.37112954351669
H         1.93509906357874   -2.28672989457400    0.59552512384439
H         1.42583581953181   -3.10860370815385   -0.87606880911147
H         0.64684933496819   -3.96155170530484    1.94805519812965
H         0.09829526753292   -4.72749071529760    0.43861504079009
H        -1.68862749086011   -3.92743721498979   -0.60217827178346
H        -3.84350653528833   -2.89889926801122   -1.64324308965156
H        -5.45650241758436   -0.99378227483474   -1.67398081084139
H        -3.10936673515538    0.86233770974884    1.39985105414196
Cl        0.14980081044026   -0.12499883424375   -0.36543644141032
