81
 energy: -120.785342393794 gnorm: 0.000647239898 xtb: 6.4.1 (afa7bdf)
Ir       -0.75737089225297    0.65832316462010    2.16572983595614
C        -2.88657362242011    2.95547706931182    3.70099744177142
C        -1.63520187373926    2.14163215796005    3.64653626664197
C        -1.37297701131338    0.93059090441791    4.36204143204963
C         0.02737708044916    0.63848214251488    4.26337971923028
C         0.71073303533843   -0.41189988562459    5.07463609715798
C         0.65535489140141    1.71312013620681    3.53960385791034
C        -0.37029281874982    2.65613291265198    3.17794191780415
C        -0.17517323476420    4.00751184200657    2.65250393353116
C         0.81950054487566    4.82947427231356    3.18903824125434
C         0.96283353346222    6.13302419938673    2.76076592755154
C         0.13334697518480    6.66008392157531    1.77161866904575
C         0.29552009829719    8.04603855698722    1.31079021911010
C         0.17726254784064    8.36340769299705   -0.04131927747457
C         0.33420073441334    9.66694238636910   -0.47477481370881
C         0.60497988496341   10.67632250805856    0.43491087660420
C         0.72070418980486   10.37300101335604    1.78182140193749
C         0.57064241034600    9.06909271919352    2.21665929326715
C        -0.85711243055545    5.83762640899044    1.23573807268579
C        -1.01850880968141    4.54116717385680    1.67662636534470
C         2.12663809306987    1.94147271238660    3.44299251457145
C        -2.29021166211176    0.18103277692534    5.26116421833245
H        -2.63341280340651    3.98205065886335    3.96289797021563
H        -3.57571251145660    2.55778318714061    4.43997853443157
H        -3.39856019948869    2.97983952668936    2.74240448760900
H         1.77608243557518   -0.44601622366350    4.87110534135801
H         0.27948724467164   -1.39412019237308    4.89699607007374
H         0.57573649298409   -0.18054323711453    6.13169978002496
H         1.45862461075292    4.46262251126338    3.97518186545049
H         1.74080659432088    6.74946088594494    3.18607172135504
H        -0.01658489441007    7.58003328216168   -0.75942706434485
H         0.24657999077318    9.89778722429642   -1.52663600281884
H         0.72487011969388   11.69466440849434    0.09548173802069
H         0.92704077729439   11.15709192557497    2.49582943561447
H         0.64528951849036    8.84500541475957    3.27062709663905
H        -1.52244544458003    6.22829708482977    0.48027872954205
H        -1.77991248454476    3.92151977229582    1.23319783731827
H         2.67270956631726    1.00895880661563    3.33830325615524
H         2.36616999451487    2.60049707188244    2.61211246174796
H         2.46890151206025    2.41447362455915    4.36462217353528
H        -3.30972841154019    0.54363378610698    5.19604640456026
H        -2.28125665364464   -0.88356775538278    5.04071036413839
H        -1.93861298748892    0.30477909405022    6.28652763605096
C        -6.40987377519042   -2.57861752703611    0.02691010736436
O        -5.54955585542028   -1.72999299483534    0.77286931554964
C        -4.23515990479206   -1.79617437815938    0.58356026501763
C        -3.56321842783192   -2.63227591409425   -0.30954412883403
C        -2.18854263583899   -2.54810616669145   -0.37471315593186
C        -1.50164375480931   -1.65405462794126    0.44443430577363
C        -0.08846441821363   -1.45854486580855    0.34067788749397
N         0.48668680021985   -0.56708724723912    1.06638808822240
C         1.91314922260863   -0.40270428849490    0.91079901132392
C         2.68285573184219   -1.33278960728994    1.86319530758366
C         2.62864720678603   -2.80527885180148    1.44280887379089
C         3.44786286747012   -3.63899319531000    2.39228621338364
C         2.88020384875670   -4.14714045803710    3.55373129374254
C         3.63777850161432   -4.88499579640436    4.44620543088903
C         4.97773279316071   -5.12162302776943    4.18819656546922
C         5.55319414516995   -4.61875576077150    3.03313354525945
C         4.79266896941321   -3.88079767802963    2.14269813529196
N        -2.13960225575285   -0.85662314467774    1.34131573663289
C        -3.45681502492674   -0.93047518958061    1.38220889282791
Br       -4.43236114954418    0.15571214069698    2.55362353537681
H        -7.41503674897850   -2.33006971499758    0.35969029300784
H        -6.31921285022871   -2.38443525746002   -1.04392010582204
H        -6.20059930985853   -3.62908470641055    0.23951429343413
H        -4.10227872387761   -3.31620034168332   -0.94404235824000
H        -1.63646078144149   -3.16074634184112   -1.06847760519863
H         0.46277659800789   -2.03572962539322   -0.39516609216716
H         2.16239248338208    0.63618286026528    1.12302115873816
H         2.20405401926277   -0.62446301335858   -0.12085128705743
H         2.27297712601215   -1.24519050652787    2.86857550422824
H         3.72403098711350   -1.00881805176902    1.88295800412112
H         3.02272700838822   -2.91270575134421    0.43077335721822
H         1.59474494353657   -3.15499734986304    1.45842014389240
H         1.83418726407275   -3.97101974907782    3.75897431629888
H         3.18381652930275   -5.27804660661470    5.34403184122244
H         5.57132209465331   -5.69753806991207    4.88298353926145
H         6.59730764136847   -4.80306478788007    2.82553262541387
H         5.24963618896462   -3.49461474271280    1.24260505925755
Cl       -1.25145148564334    1.61012469228521    0.02974503901144
