71
 energy: -115.988001646355 gnorm: 0.000149476195 xtb: 6.4.1 (afa7bdf)
Ir       -0.22714796695018   -0.53500996283292    1.67227485948881
C        -1.98401409838783    1.27377360624116    4.00596462297546
C        -0.68923128407508    0.76112734705059    3.47706519505419
C        -0.10626647499893   -0.47805200049079    3.93084568968735
C        -0.70245697028143   -1.35083144934478    4.98055604550033
C         1.24331500382181   -0.54249741743312    3.43760368436523
C         2.31610543977683   -1.46851978095399    3.89466742010871
C         1.45492508124704    0.59338766904594    2.60303943822583
C         2.76177828893498    0.99104649800983    2.01163803744715
C         0.25039762010872    1.41237784538779    2.62091198584285
C         0.22902087369976    2.81618240072949    2.08017954718751
C        -0.95340045534214    3.15312719363061    1.16591556123291
C        -0.77702581829563    4.56082453241632    0.60204405055965
C        -0.68601731065335    5.58220531521219    1.73334520549843
C         0.46551222912354    5.23891049854312    2.67496035909575
C         0.30323175523908    3.82859106933137    3.23546067675133
H        -2.75438955709574    0.50561169573883    3.98324010379982
H        -2.33250819689789    2.14800072867872    3.46765762288881
H        -1.83655172066943    1.55428820095077    5.04995545800507
H        -0.24327892265704   -2.33431582934414    4.98947241747766
H        -0.53853313663734   -0.89078928884376    5.95593585826362
H        -1.77396599409273   -1.46277403767351    4.84052132307650
H         3.00752826745543   -0.90636811544783    4.52334396236841
H         1.91743735539957   -2.29156852661522    4.47696291159868
H         2.87904077571251   -1.87081187803446    3.05595757506707
H         3.45997388265051    0.15993265797285    2.02162784466191
H         2.63945093708928    1.32885719878125    0.98472193482495
H         3.18449954853139    1.81145204158828    2.59207280493709
H         1.13153915848478    2.93886884416187    1.47433035366763
H        -1.89622508448541    3.12164235682094    1.71244958091863
H        -0.99509282152036    2.42894285692618    0.35062067076100
H        -1.61885043782421    4.80281181923944   -0.04953933642171
H         0.13203545170265    4.60254639766544   -0.00198734572979
H        -1.62518584911176    5.59000674879733    2.29169990806251
H        -0.53960947819743    6.58151584848239    1.31912101998407
H         0.49981993502897    5.95739872586300    3.49622937234728
H         1.40978835306455    5.31069570356550    2.13044583980309
H        -0.60772866949049    3.78084979409124    3.83192075750115
H         1.14639673982882    3.58772127355554    3.88502307018411
C         3.66518386550514   -6.08588115579978    3.74651078035905
O         2.56183651374264   -5.22186437705704    3.53268289473146
C         2.35105009754900   -4.71839477437821    2.30199844326356
C         3.13930791155645   -4.97455454861335    1.17858006098028
C         2.81695765180793   -4.40265570769341   -0.04092017156530
C         1.71479448051149   -3.58086908669942   -0.15250254240427
F         1.40248335228902   -3.04365193838433   -1.35094048545143
C         0.92466924900980   -3.28211306342387    0.96399928328184
N        -0.17877205168768   -2.42045337894698    0.87104012896495
C        -1.10579315547627   -2.68055661008495   -0.00041789789352
C        -2.18480883976511   -1.75015292318073   -0.09680504561023
C        -3.24686085413637   -1.86275328092150   -1.00066170269269
C        -4.23084249167413   -0.89859350125278   -1.00790636173523
C        -4.12101220107030    0.15851770280533   -0.09722031261029
C        -5.18937628466805    1.21890440884224   -0.05448722396758
F        -5.45305764617714    1.71991811188243   -1.26986586581103
F        -6.35320582662746    0.73573461052906    0.41721055580021
F        -4.86229863858661    2.25250402789431    0.73151352327953
C        -3.04277518853225    0.21507308219412    0.76860950696180
N        -2.09055223274042   -0.71214019923553    0.77618283884922
C         1.25040813267176   -3.86636396000999    2.17909386276559
H         3.62616527926814   -6.34673983216610    4.80181398359884
H         3.58172845030110   -6.99330200851753    3.14403568283100
H         4.60996834016062   -5.58151188939956    3.52971935977334
H         3.99837265673438   -5.62154061830969    1.23603409353888
H         3.41347300938093   -4.59960306977042   -0.91715450730963
H        -1.07471869764274   -3.56516239598987   -0.62582351586122
H        -3.27679879908248   -2.69357145665418   -1.68672174019906
H        -5.06288763284393   -0.94655691852107   -1.69313767472355
H        -2.94595041478507    1.02755112094612    1.47239064795581
H         0.62194623369780   -3.69539135516746    3.03617152936624
Cl        0.43512428167116    0.15986840313150   -0.50343621538306
