83
 energy: -118.884156778998 gnorm: 0.000577852292 xtb: 6.4.1 (afa7bdf)
Ir       -0.15950957124658   -0.44700703873902    1.40107118834844
C        -1.82742360413875    1.83268292239261    3.45642320303770
C        -0.65188130298741    0.98037071704470    3.11268004770196
C        -0.52805417993305   -0.38084148369734    3.58726132350530
C        -1.56105444514570   -1.09981569930401    4.38912038922358
C         0.83154662396547   -0.78826337676711    3.42455556078667
C         1.43551923855893   -1.99562574020214    4.04871228950817
C         1.51690106936191    0.25330771382250    2.72046528959262
C         2.99749362848569    0.34763537451735    2.53607134525178
C         0.60110566339848    1.37073271802777    2.56442385955585
C         1.07068947534681    2.73964920917056    2.15561427578515
C         0.24426561983987    3.44026152833416    1.07291445363759
C         0.90053348951946    4.76866330134496    0.70506481329946
C         1.01643553982646    5.66862394000773    1.93292508206510
C         1.81087769032278    4.97063109140799    3.03353704731895
C         1.16568598883296    3.63741261745853    3.40166778748561
H        -2.76292785835713    1.30482570741988    3.28860388745903
H        -1.84336617472137    2.75837017351886    2.89413404964953
H        -1.76872615654402    2.07332548972502    4.51935055462915
H        -1.41683374345764   -2.17564695772589    4.34040652543579
H        -1.48336756100824   -0.79490569030688    5.43326359880884
H        -2.56417288339467   -0.86370924503808    4.04312912770114
H         0.75652283549316   -2.84424614737986    4.01414639682222
H         2.38100918548327   -2.26094920468643    3.58565787407414
H         1.63163936412972   -1.77229131387570    5.09865523495045
H         3.47263504722610   -0.62186416455342    2.65576443902866
H         3.25234151728124    0.74828524102224    1.55684539814520
H         3.40819967355698    1.01804019968865    3.29213592870073
H         2.08091141533488    2.62910913452545    1.75079362071980
H        -0.76718192427657    3.64124477418211    1.42641189941700
H         0.18999243804990    2.79992329864704    0.19150981888283
H         0.31249320530532    5.26716742512540   -0.06803298094577
H         1.89553922541480    4.58393352846097    0.29423059820833
H         0.01757778176772    5.91071188250975    2.30391535562139
H         1.50498632758638    6.60653853207079    1.66159111967137
H         1.86168379644831    5.60914931987015    3.91789314050509
H         2.83298134014620    4.79982329664970    2.68784550620057
H         0.16874265733700    3.81742523462652    3.80422783914987
H         1.75603846800634    3.13885422296655    4.17283576965348
C        -7.63594714200405    4.57005979892774    0.13859128300903
C        -6.24134255899811    3.97021984813311    0.22360285247831
O        -6.38746323829635    2.55929516921084    0.35049463640923
C        -5.30920786843340    1.77109649959897    0.44135360480570
C        -3.97200534175809    2.23623568333683    0.44225221284988
C        -2.92948957662208    1.36181460387674    0.56408511992606
C        -3.14955629528962   -0.02433483202559    0.66670275307407
N        -2.10558323164185   -0.87322973351336    0.76743865357159
C        -2.31711576536763   -2.18952428317938    0.62677736198488
C        -1.11575903443409   -2.94047490730774    0.42203027944679
N         0.01931448441967   -2.34475777637523    0.57458308084669
C         1.18285627532320   -3.01472198657860    0.05228846545542
C         2.49792694982455   -2.23864993671986   -0.05838700792390
C         3.25452464334034   -3.50853660507338    0.39239511659910
C         4.36166607022033   -3.29952307419865    1.39184522290334
O         4.21304237503516   -2.76782093476332    2.46906526368315
O         5.51580125637795   -3.75912772689893    0.93119392320920
C         6.68610398544586   -3.62942855500556    1.74177972252453
C         1.91654474467379   -4.04743663119644    0.93612045656008
C        -3.61279572436322   -2.74113597881732    0.54896291148092
C        -4.69457165691731   -1.91010678758663    0.58772694662315
C        -4.49323893957670   -0.50869342306364    0.60150295237323
C        -5.54492152854907    0.40612861828427    0.51829946691170
H        -8.19750551816253    4.34295338159277    1.04045012779667
H        -7.56401616553053    5.64773378621686    0.02631953939712
H        -8.16797315584616    4.15870558016000   -0.71469190979220
H        -5.71013424339805    4.36878499911219    1.09653726030490
H        -5.67175808155762    4.20352013517140   -0.68468297783093
H        -3.76633650400495    3.28861820461463    0.33509793089140
H        -1.90894393451025    1.70885239065931    0.53268298800537
H        -1.17900978707485   -3.94728308815454    0.02077365684899
H         0.92071736557351   -3.46197876499855   -0.91126450626942
H         2.55661937521786   -1.45009194520667    0.68527825853492
H         2.74277773863786   -1.83712279216985   -1.03653092860362
H         3.63822895111556   -4.08589778858581   -0.44707201082750
H         7.42118732724457   -3.05644558450616    1.17880418217609
H         7.06692429526162   -4.62953492663392    1.94368692876769
H         6.43931662320216   -3.12152789494530    2.67480054415272
H         1.69950911747163   -5.09415054782969    0.74283830192348
H         1.80615764239507   -3.82883302099256    1.99409417785810
H        -3.72225981072582   -3.81019831836824    0.47045555733686
H        -5.70093968540425   -2.29793218666588    0.56558875534812
H        -6.56277084242963    0.05275089976356    0.48276403870400
Cl        0.40611750922835    0.31134390042362   -0.78467585207586
