68
 energy: -107.951315779818 gnorm: 0.000707088124 xtb: 6.4.1 (afa7bdf)
Ir       -0.52415711644464   -1.35737170803188    1.48280549604819
C        -2.51327978198077    0.67078263975150    3.47276611580549
C        -1.21641137489110   -0.01081983598242    3.21835538008349
C        -0.90140164809929   -1.33380021407364    3.69058932062506
C        -1.80761536953563   -2.18527054188085    4.51400041794384
C         0.50838615683988   -1.53531367047508    3.53921860043376
C         1.27906759664310   -2.57626014849675    4.27565734543990
C         1.03035407857774   -0.43531914579837    2.78769672709733
C         2.47457987692380   -0.13839309303031    2.56479184072673
C        -0.04965038445834    0.53209225070557    2.62058172438392
C         0.13282693620475    1.92609840091715    2.18832433726943
C        -0.20870372542409    2.95353335205353    3.06639317275678
C        -0.01030956394605    4.26394665103264    2.67725280370738
F        -0.34242713845883    5.25105292336383    3.53698538447388
C         0.51695711421949    4.60517358372829    1.44518489417636
C         0.84716566732878    3.56228997104703    0.59782889717320
F         1.36383189296075    3.85687074470546   -0.61383187357876
C         0.67014382771392    2.23671342276611    0.94213002422350
H        -2.56558025417766    1.62963509380155    2.96691882493218
H        -2.61098358534425    0.83398468319811    4.54703724496878
H        -3.35603378425133    0.05615439419403    3.16200506887603
H        -1.52564862358410   -3.23214639340587    4.44909934410406
H        -1.73659179216173   -1.87986021950469    5.55862671033642
H        -2.84237051794094   -2.07456140783571    4.20157308615235
H         1.19330143376786   -2.35602461483170    5.34087171473451
H         0.87630130231775   -3.57357687372153    4.11749077608617
H         2.33200344688135   -2.55866830995168    4.01384665434290
H         3.04024125872162   -1.04611687259444    2.37474951179544
H         2.60859510509751    0.53939834620183    1.72722559391153
H         2.87818415899442    0.34111100047865    3.45754595324607
H        -0.60203379234768    2.74697521650927    4.04814135444233
H         0.66269194815808    5.63309360492387    1.15810302005589
H         0.91213582560040    1.46241977492194    0.23090774803101
C        -6.77142571294639   -0.16235570608225   -0.76447475034900
O        -5.41243934462542    0.05045957085919   -0.40410747216573
C        -4.65040614184752   -0.98369290787418   -0.07764850397495
C        -5.03670443303606   -2.32731812789539   -0.03811575860559
C        -4.09256835366682   -3.29093692406939    0.25954627203201
C        -2.78936739679155   -2.90985047758141    0.56735663881237
C        -1.67496958215935   -3.80520662064166    0.66907622923994
N        -0.49743241087550   -3.30994125124126    0.85328749745144
C         0.64099132544484   -4.15691667122735    0.52943433810731
C         0.65758284935280   -4.36769741080061   -0.99795724304645
C         1.82063352683559   -5.26721769673286   -1.40206620858693
C         3.14702967697580   -4.66070511306921   -0.95903727057170
C         3.13561953800839   -4.43928789063875    0.54893105180352
C         1.96834282740948   -3.53920400286565    0.95391866423051
N        -2.43425433582953   -1.59853691234002    0.62115404429016
C        -3.31051764213642   -0.68212373260736    0.26041295250083
Br       -2.77072863075423    1.12408911609419    0.11569102177376
H        -6.84511846805632   -0.79440823669968   -1.65168837522978
H        -7.33045987069764   -0.60370528027677    0.06295136458466
H        -7.16591135038376    0.82649013563075   -0.98584215469054
H        -6.04919723226511   -2.61463230398306   -0.27024104886369
H        -4.35564910161772   -4.33601730090138    0.24600514970801
H        -1.82232393516231   -4.86009093972148    0.46087465529099
H         0.50947041750202   -5.12919250645374    1.02143960258266
H         0.76130205652731   -3.39274257121245   -1.47585593542569
H        -0.28520699666107   -4.80813192743524   -1.32596302089543
H         1.81103915800971   -5.39404395675691   -2.48576651378565
H         1.70040342300607   -6.25347549008336   -0.94781448693175
H         3.29722775453770   -3.70610383682001   -1.46710603435826
H         3.97079831841066   -5.32114400492744   -1.23470431705355
H         3.05033657777016   -5.40259817154425    1.05675248056080
H         4.07368653364525   -3.97960881861150    0.86269209442785
H         2.07096965093308   -2.56773657864182    0.46802391184377
H         1.98143973569273   -3.40424055743925    2.03079099151297
Cl        0.25811239555772   -0.78266290008855   -0.68964808102714
