73
 energy: -117.995655386984 gnorm: 0.000383565204 xtb: 6.4.1 (afa7bdf)
Ir       -0.64341897951265   -1.08569633196010    1.35750730897228
C        -1.83307357823289    0.99320176876773    3.82757379805969
C        -0.69988022199872    0.28873790968231    3.16415638023981
C        -0.27303719336882   -1.03192731719987    3.55568032975586
C        -0.86713079980845   -1.83010142840588    4.66402442121646
C         0.99027090966784   -1.30234986366231    2.92037153218539
C         1.88081664324464   -2.44614669832638    3.25928877726564
C         1.28275610534137   -0.21382024267145    2.05461181726363
C         2.55165779496854   -0.00076678622133    1.30176972943177
C         0.22666023042318    0.78532720414193    2.20078911065573
C         0.34889622548118    2.17472108857233    1.63746699402172
C        -0.87987015321590    2.68176076499965    0.87483612336332
C        -0.57562553374060    4.05002508055718    0.27007877683359
C        -0.19237004899304    5.04550050915886    1.36290127019700
C         1.00721462944807    4.53645362230589    2.15830080717810
C         0.71622311402392    3.16302508952719    2.75721978851883
H        -2.70198342450510    0.34514122484557    3.91872820894079
H        -2.11589195329715    1.89952717450510    3.30521078906211
H        -1.51970732399131    1.26471656708654    4.83653484969097
H        -0.64948712582593   -2.88786162609607    4.54761043600785
H        -0.43398637175453   -1.49963318477977    5.60902446355617
H        -1.94302919238679   -1.69238214904698    4.72003691219491
H         1.31101329483368   -3.34924078532289    3.46110559843174
H         2.59221928227192   -2.65237291197364    2.46540225357747
H         2.43939731835855   -2.19223295343069    4.16083713153498
H         3.15357853317335   -0.90405677120568    1.28567902231100
H         2.34824596964795    0.30351187191737    0.27693632812555
H         3.12765003515614    0.79007901245360    1.78229718117955
H         1.17567791959076    2.16265987209647    0.92136374213900
H        -1.73747183560718    2.78428713819790    1.53940689688786
H        -1.13109258487083    1.97273079997506    0.08468608026536
H        -1.44941270837113    4.41429965949389   -0.27363492523207
H         0.24476965961169    3.96034868347724   -0.44536369825937
H        -1.03989941749836    5.19160586288513    2.03675538095638
H         0.04459023711311    6.01315573534991    0.91612093000294
H         1.24750947282674    5.23964091141732    2.95822877104030
H         1.87671651721479    4.47293980564352    1.50001379673413
H        -0.10768125942573    3.24540659236682    3.46627761723985
H         1.59225903629783    2.80063899514819    3.29826295217849
C        -8.73024229356304   -0.85101993978923   -0.92457482106187
O        -7.38043722634159   -0.75649367559873   -0.46834378721803
C        -6.60536013089324   -1.81839694512438   -0.63153846225831
O        -6.94978751137565   -2.85762035154231   -1.14198967985640
C        -5.22192128787566   -1.58703394157822   -0.10499757360619
C        -4.82934045233480   -0.37643056718117    0.47236292492095
C        -3.53437624109173   -0.24559727413903    0.93728285535315
N        -2.63925834254910   -1.22997823594701    0.87099642956893
C        -3.00536964189530   -2.40622036948897    0.29753169122693
C        -1.94908824950901   -3.36954034991023    0.22645480248510
N        -0.79394748722417   -3.00014449810894    0.68310867062004
C         0.29293792208413   -3.88423031844685    0.62873553573889
C         1.49381168897465   -3.45667851158260    0.06304318774715
C         2.56810604298110   -4.32152189867906   -0.00633678182013
C         2.45231958880556   -5.60870298588909    0.51037787977332
C         3.62914091739616   -6.53840318727623    0.41080347155272
F         3.77123578995450   -7.04643633491472   -0.83181882383600
F         3.54452370376954   -7.59132989361813    1.23750552145118
F         4.79314367989578   -5.92524798138202    0.69373512764568
C         1.26089231587337   -6.03847161845921    1.08179376986050
C         0.17996572156679   -5.17837258024884    1.13638951787196
C        -4.29163439763930   -2.61109165381519   -0.19837702444140
H        -9.10378573393752    0.16797370535910   -0.97239463705182
H        -8.76562690294808   -1.32725182053291   -1.90539598046863
H        -9.31816620477883   -1.44156375342189   -0.22024010499628
H        -5.52533556544520    0.44178359222799    0.55412916186954
H        -3.20045389843967    0.68175620908302    1.37745628093077
H        -2.10300886594543   -4.33834480405502   -0.23419547375271
H         1.55854783584624   -2.46115369694419   -0.34795838387896
H         3.49664952307015   -4.00396037382932   -0.45487087233123
H         1.18066013444391   -7.03766331321104    1.48041907138033
H        -0.74388592966728   -5.50187420645387    1.58972971421006
H        -4.56787166953454   -3.54826022371128   -0.65612314810942
Cl       -0.33248405396833   -0.49500209608214   -0.93615174326108
