77
 energy: -105.444374701216 gnorm: 0.000362778234 xtb: 6.4.1 (afa7bdf)
Ir       -0.29133625516288   -0.57708370205133    1.69411674304623
C        -2.19348825504083    1.62805155515826    3.51767082446800
C        -0.91884835182753    0.88484256040386    3.29718793052341
C        -0.67634243396398   -0.41277305131174    3.88181225231350
C        -1.63709843575540   -1.15828849609739    4.74644183219244
C         0.72845071722946   -0.68716485905065    3.79410821970805
C         1.40912708042380   -1.74084238658463    4.59933313598869
C         1.31779093371167    0.33126452122284    2.99523234452264
C         2.77917422454417    0.52640236803995    2.75269288363877
C         0.29449027712109    1.33414797820287    2.70962194931741
C         0.63152741040904    2.69729496484366    2.16932378692073
C        -0.27223218154065    3.21176417102103    1.04398901974879
C         0.25439644295447    4.55209326154333    0.53769905876770
C         0.29790686484722    5.57364640686778    1.67184250127351
C         1.16463008839315    5.06223348718876    2.81948629557679
C         0.65503425455920    3.71459768648865    3.32296313656961
H        -3.05861194846408    0.98563994175382    3.36881977748192
H        -2.28122824732148    2.49642383272237    2.87533659049353
H        -2.21120442198377    1.96912979546742    4.55392129332943
H        -1.38788612617902   -2.21498000502025    4.78391414309274
H        -1.59074664131313   -0.76246558410324    5.76187916120153
H        -2.65774622200662   -1.04960590389246    4.39003321592188
H         1.27879371588534   -1.49291580330960    5.65385489844676
H         0.96904753145713   -2.72280113059914    4.43948907547502
H         2.47411503461395   -1.78391765233029    4.39368141476622
H         3.33370670749716   -0.38863964992660    2.93619937409098
H         2.96530506035388    0.83991409464389    1.72780708585004
H         3.15918204413445    1.30066478106763    3.41974415157801
H         1.64214147007051    2.64240363313165    1.75394143514994
H        -1.29243157141620    3.35775623187647    1.39923030703594
H        -0.28663322103306    2.48584759637794    0.23030509187027
H        -0.38433533376358    4.91890315061755   -0.26835778481916
H         1.25813896790424    4.41961152700746    0.12785068628387
H        -0.71575865050163    5.75782988641982    2.03628382021975
H         0.69380820830803    6.52209119913308    1.30305846509080
H         1.16102141650758    5.78430146969439    3.63879205704828
H         2.19557110015988    4.95757784370246    2.47356685964363
H        -0.35010483921519    3.83655649651574    3.72828868456078
H         1.29989843454446    3.35153090096159    4.12546520605181
C        -1.34340870348778   -3.02261483351098    0.67099158859447
N        -0.19676467395439   -2.52784168419679    1.00029116404147
C         0.97433385294269   -3.34588928993003    0.71893473231263
C         2.24985999685089   -2.74406462393603    1.29456138160939
C         3.46108383283709   -3.60911332714757    0.94923006838811
C         3.60938474544956   -3.75199180780120   -0.56122271882039
C         2.33528944212331   -4.34360971263407   -1.15314951942530
C         1.13001854611270   -3.47541712988599   -0.80863487841393
C        -2.47112253534968   -2.14556884255412    0.61496982117946
C        -3.74896816753812   -2.51167544683431    0.18228340860275
C        -4.70629017875046   -1.53891215039832    0.01257172260945
C        -4.36892229727314   -0.19437035112740    0.24531780924525
C        -5.32538073372252    0.85879372933913    0.03351856568408
C        -5.23331576742849    2.22883603922937    0.17402863779098
C        -6.49014379818810    2.74954147779492   -0.18444792858498
C        -7.26127578938749    1.67114200219213   -0.51811509468918
O        -6.57258347022847    0.53533305653974   -0.38976271483069
C        -3.07224940970199    0.08569292899066    0.69435908048173
N        -2.16811973075052   -0.85582110256689    0.90038080265694
H        -1.44749638960132   -4.05148064030623    0.34249695596160
H         0.81318513498652   -4.34520006404460    1.14461830525461
H         2.38162800094819   -1.74655730971375    0.87328578261917
H         2.16128013776723   -2.66832363554055    2.37418844627592
H         3.34460072345691   -4.59837397915056    1.39788959858357
H         4.36148875354299   -3.15757009997548    1.36807102202347
H         3.79373498233271   -2.77141654090857   -1.00420264041671
H         4.46208837165502   -4.39147677685468   -0.79528073574271
H         2.18701655858622   -5.35350368022651   -0.76317730779934
H         2.42452497522553   -4.41452027587152   -2.23842159446609
H         1.26163169619056   -2.47588587499457   -1.22512347826099
H         0.22683938588887   -3.90565175235529   -1.24408064319025
H        -3.96482150019040   -3.54788434608992   -0.02164410533883
H        -5.70235183421089   -1.78707098182301   -0.31690205626399
H        -4.37926776163363    2.79194692183734    0.48669370960960
H        -6.78422677025678    3.77838374235795   -0.19512408726975
H        -8.27868409893471    1.59685093344613   -0.84842379893229
H        -2.76473573091973    1.10303965756029    0.87615771924718
Cl        0.47660335548074    0.04811065330905   -0.47639694472417
