74
 energy: -109.901822329927 gnorm: 0.000347023984 xtb: 6.4.1 (afa7bdf)
Ir       -0.95570261479092   -0.79949065531044    1.36259449627902
C        -1.82497150224129    1.40623004287523    3.91770792294727
C        -0.90888843796841    0.40382336500103    3.30578969076933
C        -1.00542435147029   -1.01933793405869    3.56430998333636
C        -2.02614371334769   -1.64708776691373    4.45255298484381
C         0.20866610596885   -1.63268057591860    3.11170344966456
C         0.64568603375200   -3.02117565553744    3.41965688831632
C         0.97283015060251   -0.63454356851060    2.43618118243756
C         2.36119861963298   -0.77087019847450    1.91550484342902
C         0.29213219137092    0.63885098508612    2.59293333855468
C         0.91405221492204    1.94637802867998    2.23485695299508
H        -1.68437212246512    1.38363455286415    4.99886894807277
H        -2.86542736477353    1.17102135026064    3.71177450445187
H        -1.61047143300287    2.40895101622900    3.56556259795582
H        -2.99477215355670   -1.17139085340515    4.32859241594817
H        -2.12527588821286   -2.70965103424100    4.24997307713829
H        -1.72032534381230   -1.52763959244255    5.49259329285225
H        -0.20051457354425   -3.69782879072485    3.49905663324924
H         1.33344727212233   -3.39899694007042    2.66799246923148
H         1.16495472461280   -3.01379574546763    4.37893926545595
H         2.48805271839533   -0.19082610856815    1.00415966978764
H         2.61118567161314   -1.80714702899907    1.70772850906326
H         3.06477530491453   -0.38949939761818    2.65686050144537
H         0.29852278623565    2.78235285847440    2.54990249279426
H         1.07809782615134    2.01474582273512    1.16078571550874
H         1.88491737082807    2.02554076947886    2.72266969715854
C         2.21395588602628   -8.10634070458059    0.44330213958971
C         2.50625345481853   -6.69895911117757    0.05056785284043
C         3.71569617300990   -6.32951545705858   -0.43261890780653
C         4.03405275574983   -4.97000105984746   -0.81009285090275
O         5.10512516166280   -4.59174225872046   -1.23388918600185
O         3.04405476971145   -4.03743750679998   -0.66538067181939
C         1.81750360638628   -4.36830327337561   -0.19927992597446
C         0.88642911312597   -3.33802705901708   -0.09847641648625
C        -0.39154661591162   -3.60647226548534    0.36742146302203
N        -1.33460158098409   -2.57612783587207    0.47349285330338
C        -2.53805046977889   -2.76812485562473    0.04926854602575
C        -3.50996289366460   -1.73029786404938    0.23342199456658
C        -4.84982802906976   -1.96414793667334   -0.02956220215373
C        -5.75975100842050   -0.95487323279430    0.27025113590579
C        -5.28487374950244    0.24960389618344    0.71752204993236
C        -3.89052969141905    0.48605044120631    0.85669268645872
N        -3.43262657684570    1.71497863767071    1.17862721853654
C        -4.32450602038595    2.77670779119982    1.61981898442922
C        -4.81480329513060    3.62475105042057    0.44440336356313
C        -3.60941803683577    4.20863604048812   -0.28967924419571
C        -2.65063576871552    3.08647913625596   -0.67970892184583
C        -2.24588238541370    2.27277100798235    0.55316436246762
N        -3.02742869064358   -0.54878734303335    0.70615354453035
C        -0.73094080992073   -4.91182037131062    0.75375188102718
C         0.19418861387180   -5.92340866470646    0.66293664443203
C         1.48746543491601   -5.68153128700002    0.18032616316934
H         1.92887814761778   -8.15325893063322    1.49264167755911
H         1.39216808571003   -8.50126064131922   -0.15131852259772
H         3.08802632053144   -8.73192727112369    0.28992825074126
H         4.51860733866486   -7.03805751513674   -0.55949143266099
H         1.15945788778304   -2.34452896307229   -0.41450848312137
H        -2.82377743015032   -3.68770354613805   -0.45055497760093
H        -5.16798044170645   -2.91169544988564   -0.42862981865468
H        -6.81778789302535   -1.10831276481337    0.12923184583943
H        -5.98095375246073    1.04616982358848    0.91105577523463
H        -5.15169835586309    2.36630387867597    2.19677636113560
H        -3.74020181797380    3.41461619871073    2.28883852970145
H        -5.45992649619116    4.42293078209267    0.81275307246553
H        -5.39391098723001    3.00981286096724   -0.24691077971555
H        -3.93614921717420    4.74940463992295   -1.17906824064736
H        -3.09376952310190    4.91951474574804    0.35981921647691
H        -3.12848864729890    2.42497306258712   -1.40538945137043
H        -1.75314076884414    3.49609749262442   -1.14327386178392
H        -1.56492129732237    1.47849068231630    0.25914436338115
H        -1.74981596543168    2.92730537519178    1.27001619286081
H        -1.71552945380708   -5.11295624326892    1.14557744318128
H        -0.07844395706709   -6.91975325122396    0.96849324871458
Cl       -0.14535861418537   -0.14119182556016   -0.81789948936918
