80
 energy: -124.547720525513 gnorm: 0.000357849911 xtb: 6.4.1 (afa7bdf)
Ir       -1.15791968988287   -0.71348621692788    1.35251294402891
C        -2.38973833742945    1.60332717652562    3.67614073208770
C        -1.32849492267302    0.68012458532301    3.17755413829307
C        -1.28305945103189   -0.71293454153027    3.57220458250210
C        -2.27104969350340   -1.36610079533991    4.47778951972975
C         0.00224623902430   -1.23431558600414    3.21970019613097
C         0.56079606594560   -2.53240895274296    3.68709107028496
C         0.68668306408692   -0.22816921624304    2.47186165565990
C         2.11081159747676   -0.29283784293288    2.02942086477768
C        -0.12189498727305    0.98398140940149    2.49185039980840
C         0.43953981505779    2.32458925569160    2.10393543304021
C        -0.42313760342005    3.16964832129373    1.16132672684708
C         0.32121887138644    4.45099440448171    0.79415552742334
C         0.65807881499104    5.25368755141580    2.04843349386606
C         1.49418668820666    4.41395599586733    3.01030020518611
C         0.76311556687747    3.12569846721988    3.37785045470610
H        -3.38265957785224    1.20003992244111    3.48969501626679
H        -2.32217732722566    2.58660339510201    3.22670398888705
H        -2.27031834642167    1.70649811618068    4.75540214352440
H        -2.23101411559956   -2.44788216478203    4.39015123777534
H        -2.03838089925245   -1.10157137223441    5.50997365981873
H        -3.28185030575379   -1.03079694993484    4.26320018146445
H        -0.21025636718794   -3.29322057778584    3.77172238857798
H         1.34602734999786   -2.89646553716777    3.03080811449189
H         0.99174284208087   -2.38039158633061    4.67756689197600
H         2.45786913967682   -1.32088736633957    1.98176890472451
H         2.23536910836231    0.16119229205658    1.04916557230834
H         2.73702058325152    0.24841314130502    2.73892242421241
H         1.38267227741110    2.14197944302483    1.58101370234887
H        -1.36506662147898    3.44325640728509    1.63720238325630
H        -0.63661589958437    2.59638762768285    0.25806813776878
H        -0.29222022614740    5.05275688681035    0.12071068616232
H         1.24256343300935    4.20009745465281    0.26402489766155
H        -0.26589646924070    5.56205120647035    2.54358899334533
H         1.20476220119467    6.15828657171230    1.77526039562122
H         1.70501780767861    4.98544151115300    3.91642773436873
H         2.45031515285281    4.17247162980572    2.54045169789526
H        -0.15849431737666    3.37153673034963    3.90550325268107
H         1.38307107992297    2.52456844231739    4.04547717166003
C        -8.04931457819987    5.11028595481656    0.09898584605715
C        -6.74191859096790    4.36750667423493    0.32447058890445
O        -6.99171595869532    2.98385177196572    0.09496017439237
C        -6.01254715966615    2.08334885018831    0.22270266587804
C        -4.67649377450191    2.38891761598924    0.57889136597405
C        -3.74556097547989    1.39796153456449    0.71010270207277
C        -4.07185003727280    0.04832460809506    0.47863314409378
N        -3.13475463095505   -0.91423210673083    0.61147319245866
C        -3.42776913167198   -2.16442896496271    0.21617871646401
C        -2.31937599988879   -3.06156488345313    0.21487934037963
N        -1.17519961081551   -2.59532852686674    0.60911171540475
C        -0.03717725784580   -3.41089005933610    0.56907751957867
C        -0.07112678638957   -4.70716142989797    1.08583010399312
C         1.06128274419163   -5.49718651463523    1.04293071598173
C         2.22700489907309   -4.99906931850990    0.47166357573722
C         3.46198831827677   -5.85420401486958    0.45487713145446
F         4.17030659660413   -5.73680618313360    1.60115982890867
F         4.31002660292579   -5.53936532482726   -0.53642767822139
F         3.18936120064649   -7.16346477170271    0.32448645712141
C         2.26770617982119   -3.70861875114440   -0.04619524720174
C         1.13870665024293   -2.91460393608713    0.00748452354212
C        -4.71795863327094   -2.54156991039449   -0.21693317244550
C        -5.70883120267889   -1.60662990085333   -0.25799315254211
C        -5.40575841567158   -0.26164585606691    0.06301206057545
C        -6.34922943695748    0.76168996938863   -0.03384223205294
H        -7.89909457251347    6.17335993097609    0.26157882745975
H        -8.39790685554609    4.95267761197359   -0.91784819998876
H        -8.80926510661176    4.74887568112686    0.78618300296784
H        -5.97618353878113    4.72756252403531   -0.37340994031896
H        -6.39373782759655    4.51509422381151    1.35392835940069
H        -4.38211775061767    3.41334221093751    0.73823403507188
H        -2.71984623058123    1.63573285821381    0.94109576371345
H        -2.41900991581641   -4.06792369580741   -0.17543509046560
H        -0.97379246317306   -5.08636776007612    1.53860603743130
H         1.04293951047579   -6.49840609173094    1.44427500425087
H         3.17580940574670   -3.33357270993886   -0.49171385862766
H         1.14442544105925   -1.91800900655958   -0.40515342640792
H        -4.89335173332201   -3.56635369368429   -0.50028959147086
H        -6.71246122692972   -1.86398343781451   -0.55784770600471
H        -7.35872596101140    0.53422978110256   -0.33641420206806
Cl       -0.58584672596948    0.06126580828704   -0.82655242263550
