71
 energy: -102.355046287745 gnorm: 0.000599370176 xtb: 6.4.1 (afa7bdf)
Ir       -0.50843118767990   -0.83994476176139    1.43432169370364
C        -2.01936762165944    1.12167243482008    3.82535333616159
C        -0.80022931662873    0.45857783922033    3.27785297066585
C        -0.42002477875520   -0.88338794843863    3.65206767690075
C        -1.15486003377801   -1.73339400953766    4.63299194241405
C         0.91885163112118   -1.11571461643378    3.18265765585772
C         1.77756749907263   -2.26675524381268    3.57862487259989
C         1.30441594490364    0.01007682734935    2.40624292838434
C         2.65700975500620    0.25471485660780    1.82532453003939
C         0.23470528313817    1.00220610804932    2.47069489473435
C         0.41144335238405    2.41637585120505    1.98663178697179
C        -0.71770225182452    2.93918417279876    1.09186248852691
C        -0.37266066064951    4.33925979532727    0.59144074989556
C        -0.15546056047012    5.28951694082982    1.76676907776264
C         0.94958129588448    4.76660946215897    2.68080426890186
C         0.61871674441332    3.36270806019703    3.18028522960557
H        -2.89550983063138    0.48448596833893    3.72310825316938
H        -2.21638002944627    2.07421362570511    3.34766742678983
H        -1.86434160717049    1.29910145655503    4.89032903674096
H        -0.89520271052007   -2.78167675198662    4.51487157062158
H        -0.88379329096647   -1.43038739164122    5.64508267126959
H        -2.23000805341384   -1.62166836662254    4.52387734823880
H         1.19168116865645   -3.17168694526524    3.71489888841958
H         2.54909858457969   -2.46313589498240    2.84020671418317
H         2.26221097613872   -2.02924777794853    4.52623759676623
H         3.24677904810508   -0.65697069957884    1.81609221780193
H         2.57959173607273    0.62920404539709    0.80643439844889
H         3.18207303779658    0.99945903097396    2.42350441495192
H         1.32323632216960    2.44144774302792    1.38242596614135
H        -1.65626070643951    2.99301930589888    1.64438420954656
H        -0.84854471108493    2.26223603435155    0.24601979414663
H        -1.17732417119582    4.71240821268788   -0.04544825167860
H         0.53487414746239    4.29746183733413   -0.01488431658109
H        -1.08314965558916    5.38469135446642    2.33616747503808
H         0.10866559087180    6.28229627834209    1.39692898287183
H         1.07696582756151    5.43775756171695    3.53283645018262
H         1.89297637358519    4.74637236144016    2.13024358915396
H        -0.28558933624544    3.39931320578500    3.78843899824294
H         1.43085250295182    2.99200430978767    3.80860160790543
C        -1.67929257910025   -3.11848260060182    0.17505855884962
N        -0.56595617322916   -2.72737738616721    0.71292731293651
C         0.53289367818296   -3.59600049375351    0.75814728506019
C         1.78173930751904   -3.14037082798322    0.33792168774415
C         2.86638659519753   -3.99710486272710    0.35742015060303
C         2.72269082630162   -5.29792254582543    0.81722857187777
C         1.48389760640215   -5.74646843557899    1.24945003967537
C         0.38668737364344   -4.90601852728752    1.21398042550246
C        -2.74965503061015   -2.17459700646429    0.14955618256955
C        -3.99478385781671   -2.38929233141514   -0.45130298052216
C        -4.92306370154395   -1.37609874536234   -0.45975941788585
C        -4.59639738862997   -0.13914045772525    0.12424233993883
C        -5.53294271666252    0.95253106402231    0.12184977030204
C        -5.43301800558640    2.25491227990106    0.56832946362476
C        -6.67093171988280    2.86460314635509    0.29465014098792
C        -7.44069728504298    1.90084022181600   -0.29472716248717
O        -6.76732457035711    0.75384329306810   -0.40364870172878
C        -3.33334870062426   -0.00759975463207    0.71320095592151
N        -2.44681024229625   -0.98861752411347    0.73895340354767
H        -1.78027657966307   -4.09713352897317   -0.27930270150920
H         1.87157806474773   -2.13137735060774   -0.03392754936479
H         3.82805421857160   -3.64896660005707    0.01220338570883
H         3.57438286587348   -5.95975065197093    0.83913981566675
H         1.37060688947305   -6.75603263187951    1.61279438791851
H        -0.57666459341145   -5.24670919119064    1.56141625633958
H        -4.20432456203601   -3.34290359433585   -0.90798612256349
H        -5.89129194329908   -1.51009688447882   -0.91474036866187
H        -4.58361925818530    2.71920722151869    1.02360233113938
H        -6.95477836959072    3.87489198366210    0.50409209783237
H        -8.44701753861870    1.91885111305695   -0.66451737003518
H        -3.04079820223946    0.92387651250476    1.17134307513604
Cl        0.00806828481042   -0.14661717514860   -0.79647640960198
