63
 energy: -102.442398669075 gnorm: 0.000829993029 xtb: 6.4.1 (afa7bdf)
Ir       -0.58510269090299   -1.17807407927721    1.27435539332785
C        -1.65076461274255    0.93695177911719    3.86105986185469
C        -0.58368652041375    0.20557712086476    3.12856115254840
C        -0.17039065974278   -1.13734044563787    3.45762620756870
C        -0.73640444751576   -1.95163897696700    4.57118692659229
C         1.06858782168173   -1.40063615722537    2.77383917673052
C         2.00217196931902   -2.51725032945607    3.08705416778251
C         1.33683966709250   -0.28614571214443    1.92148948603881
C         2.57200385306618   -0.04614008661747    1.12747229416276
C         0.30824456236770    0.71274183147241    2.14546366167591
C         0.39267533524296    2.10623720449507    1.62407777973458
H        -1.32281638897733    1.07049809811569    4.89263196146665
H        -2.58130218850014    0.37468431886743    3.88221115993283
H        -1.83892224354925    1.91304979423210    3.42785695658742
H        -1.80982685484035   -1.80802954546997    4.65468262553702
H        -0.52726104964617   -3.00816559343815    4.43109920539835
H        -0.27919686412506   -1.63765612229731    5.51022385419747
H         1.47003140307283   -3.42608752528885    3.35280155728163
H         2.66764078142946   -2.72722668339493    2.25500620859787
H         2.61160384200826   -2.21909085611271    3.94110584443065
H         2.33058511111258    0.40999194294644    0.17000087037371
H         3.11980483770584   -0.96676143173437    0.94813011769351
H         3.21853686490978    0.64235948745511    1.67310401137053
H        -0.50823748920952    2.67095183010105    1.84070971514645
H         0.55020801699890    2.10405539533143    0.54774407901341
H         1.24298634409768    2.60822819261874    2.08636656332907
C        -6.89240787792003    0.43736171197128   -0.65746047971404
O        -5.55399048428350    0.54336664472496   -0.19214605860182
C        -4.82384182806270   -0.55237001533534   -0.02665680108112
C        -5.22297080797782   -1.86897114705081   -0.27568557550103
C        -4.31081981258654   -2.88443861478596   -0.07963632655878
C        -3.02941653530983   -2.59234415971483    0.38771012632738
C        -1.98500051896615   -3.55984485006904    0.47715728233228
N        -0.79780803974567   -3.14107286263083    0.78118722898033
C         0.27004714471681   -4.04799812436888    0.78662031139885
C         0.17911859395789   -5.26255848653028    1.47931992865398
C         1.23615077685294   -6.14123534728322    1.46716619743244
C         2.40822066937747   -5.85537337332083    0.75406741481817
C         3.55008937191391   -6.74028166893467    0.68717178937937
C         3.53730574964596   -8.03790387126278    1.41948933860116
C         4.61442438615187   -6.35050254767410   -0.05310583485521
C         4.66528443377332   -5.09222130540729   -0.76448940562643
O         5.59489417876955   -4.70092492739295   -1.43620065961312
O         3.57192979005947   -4.27530271480702   -0.65782074543907
C         2.48266067815817   -4.63534155297272    0.05790615334408
C         1.42461896501496   -3.73091681795683    0.08722799615086
N        -2.65185737707623   -1.31983534565977    0.69522523420372
C        -3.51289339888929   -0.34782448406745    0.45789468690943
Br       -3.01093909992799    1.43328066382761    0.73980935209240
H        -7.49926958615084   -0.15465620611266    0.03066303624729
H        -7.26424721432530    1.45907137886724   -0.68882257536161
H        -6.92448969936683    0.00384815288124   -1.65930042058648
H        -6.21407735872588   -2.08745097147474   -0.63780441141219
H        -4.57392135669531   -3.90622150935262   -0.29921998805348
H        -2.17402610623826   -4.59401690352127    0.21160527789183
H        -0.71392326914933   -5.49121327765417    2.03942386275845
H         1.15997481694692   -7.06866994455892    2.01028051447872
H         4.46884666475602   -8.57231699698018    1.25898500531162
H         2.71317866879151   -8.65952536688470    1.07397995809494
H         3.41108842614178   -7.86656602403584    2.48711107196485
H         5.49479029506825   -6.96554060180523   -0.15082338336271
H         1.49601269641050   -2.80525979551373   -0.46160392702555
Cl       -0.29860633503693   -0.66051518773215   -1.04749701298133
