68
 energy: -115.114861153375 gnorm: 0.000333368381 xtb: 6.4.1 (afa7bdf)
Ir       -0.41361743975442   -0.81121177003364    1.34379211308756
C        -1.93880851419805    1.02237356677494    3.82434815838242
C        -0.70455458192304    0.39986323545237    3.27255787355353
C        -0.26418303967462   -0.93657451300238    3.56560647512727
C        -0.93739738845852   -1.87058140620692    4.51233716140661
C         1.06863751484237   -1.08817982671931    3.04202709702827
C         2.00885090808484   -2.19155006951844    3.37770884005004
C         1.39606238718739    0.08833405213768    2.31540861059893
C         2.74026700663473    0.40964090519116    1.76118825208388
C         0.28790862791842    1.02341287085439    2.45983443325794
C         0.35984721642681    2.45450487875154    2.11895640789977
C         0.21068318480053    3.40202486887624    3.13110887743509
C         0.33033941344476    4.74270106085855    2.81866791455029
F         0.19150729842931    5.65108320703202    3.80595533268075
C         0.58715363718050    5.18999528407710    1.53494050021817
C         0.72501682109267    4.22524727777921    0.55194807215519
F         0.97156999976984    4.62472918280947   -0.71196874328492
C         0.61870962371877    2.87279025793846    0.81498422269413
H        -2.15155916756669    1.97290096933855    3.34523201377868
H        -1.79843159486674    1.19074009851944    4.89262116405127
H        -2.79764368865118    0.36551327569781    3.70828138453289
H        -0.64199176343592   -2.89864225019489    4.32318180568629
H        -0.64700717845148   -1.61688208110379    5.53256982496350
H        -2.01855819533966   -1.79029389354922    4.43997590791566
H         2.47960013225002   -1.96171338659483    4.33438793157895
H         1.49429762052986   -3.14354273362534    3.47479320333213
H         2.78982342959467   -2.28455219153885    2.62920302174642
H         3.13108136888959   -0.41654734490050    1.17176588490972
H         2.70592912467256    1.29685631966642    1.13649304565116
H         3.43076519988630    0.58944965664171    2.58595221754787
H         0.03170306599171    3.10905349377122    4.15239244076995
H         0.67740230473626    6.23972898024141    1.31108943713800
H         0.71090940199495    2.15997962184592    0.00948794121588
C         2.45880253951320   -7.74464426538272    2.29594046709270
O         1.38842104821751   -6.82164573150665    2.18462866678935
C         1.57721081179721   -5.67846225157621    1.50547280899340
C         2.76767526720744   -5.30638510856754    0.88071422863390
C         2.82191838122860   -4.08497836347784    0.23105401601041
F         3.97983348102801   -3.73349365645615   -0.36543371971372
C         1.76122872910142   -3.20454300445209    0.18265550676649
C         0.56982150334696   -3.59589980394888    0.79404548330857
N        -0.53123604727652   -2.72727490914935    0.74715747185914
C        -1.68880543248468   -3.16427250054829    0.36885471600828
C        -2.74845935111096   -2.20432877831956    0.29743447123212
C        -4.05027080760919   -2.52998122251439   -0.12883856210168
C        -4.98730291865371   -1.53918228977369   -0.21696364060781
C        -4.61248836639067   -0.20594810924233    0.05281692768984
C        -5.51267037843831    0.86960407382211   -0.08321885757715
C        -5.10117388607295    2.15691558185599    0.13376085983244
C        -3.76604663147491    2.41863456290276    0.48202284023003
C        -2.87133220616538    1.39582145728017    0.64629025065606
C        -3.26822900454328    0.05849224051762    0.45693638466825
N        -2.38568216412028   -0.95577997599412    0.63267316858760
C         0.47546325455682   -4.81731975587281    1.44623632979175
H         2.06627001678807   -8.57228641464885    2.88252224776999
H         3.31100940901500   -7.29943772620621    2.81545009723244
H         2.77073381623307   -8.10932203084067    1.31427420348494
H         3.64396880228098   -5.93231648275168    0.88422756332877
H         1.83423370252115   -2.26641242272281   -0.34250543362447
H        -1.83704367636471   -4.19117427374218    0.05547400757878
H        -4.28218534654810   -3.55438693772022   -0.36923062220882
H        -6.00250596209498   -1.75400370802516   -0.51292928063035
H        -6.52890922945851    0.65658468617886   -0.37690316909165
H        -5.79228306005760    2.97755778533368    0.02302870798964
H        -3.44411843310946    3.43939605724688    0.61637356285783
H        -1.83813513551722    1.60087546395701    0.87550656121186
H        -0.43423967525920   -5.11555774489947    1.94185898810545
Cl        0.15053921414666   -0.20713803799789   -0.89073607587824
