61
 energy: -98.139540628918 gnorm: 0.000500686854 xtb: 6.4.1 (afa7bdf)
Ir       -0.38178906405266   -1.07727763718333    1.17644386448130
C        -1.93731282313580    1.32847173195920    3.08128907326530
C        -0.73582493771627    0.50794509413419    2.76030248824444
C        -0.40969613959009   -0.74895629128384    3.39642347734988
C        -1.21220629182868   -1.38498806047487    4.48029852185136
C         0.94944273028432   -1.07661085925604    3.05275637026710
C         1.81015810578890   -2.08632117849619    3.72645525153548
C         1.40129364408063   -0.11930762612358    2.10058305157450
C         2.78780493733332    0.00912705683271    1.57283804421276
C         0.35788677037413    0.88204575901586    1.93556721178419
C         0.54607519263183    2.16538173904470    1.20302513110508
H        -1.77119602795566    1.81900901745896    4.04139089048075
H        -2.83118376601411    0.71617984565673    3.17337678570824
H        -2.10370475765367    2.10361276718737    2.33854596242414
H        -2.27613348088010   -1.23598008080571    4.32021838708161
H        -1.01465601255035   -2.45082099543560    4.54724673317273
H        -0.94645429102965   -0.92861842451300    5.43470062697062
H         1.22023532246434   -2.79195695111613    4.30149103372773
H         2.42402960397526   -2.62722137834861    3.01062067086612
H         2.47742851071624   -1.56114864225491    4.41121166472918
H         2.77472076388434    0.33876048828608    0.53670215226143
H         3.31946770528177   -0.93597578733416    1.63323459419086
H         3.32783479679359    0.75363235416444    2.15862114966889
H        -0.38991252804632    2.70308396158283    1.08573869519461
H         0.96704693216902    1.98097741457613    0.21690030969417
H         1.24316203966083    2.79510293350003    1.75597764447352
C         1.79530449729772   -2.38324745659590   -3.85959001947534
O         2.07325926771001   -2.95946315113388   -2.58655746077648
C         1.04171733565852   -3.43644917373640   -1.90638032553132
O        -0.09698576137833   -3.46645167183592   -2.32329026448529
C         1.46865456429871   -4.01578791778747   -0.59729918970417
C         2.63785572801852   -4.75163275448852   -0.54108247738528
C         3.04617146109582   -5.38121714487643    0.64096435261300
O         4.19145428329961   -6.08269251093370    0.56846547901954
C         4.66433677692650   -6.75491731870398    1.72352657930094
C         2.25294568758163   -5.24873255304820    1.78198033964805
C         1.10812398432963   -4.47543465194656    1.74197820257862
C         0.70074016642399   -3.85002447718064    0.56965578580346
N        -0.44017206164734   -3.02962498035575    0.56010096867578
C        -1.48222212242173   -3.39682372455800   -0.11476341438657
C        -2.52488949665454   -2.42977142067350   -0.27069276467124
C        -3.67918764560908   -2.63182302638797   -1.03222721015253
C        -4.57439720044111   -1.59626821888503   -1.19531688366162
C        -4.27509332685723   -0.37578976259482   -0.58970021744254
Br       -5.44143044435663    1.11456681054090   -0.77120690715299
C        -3.11930375748094   -0.23890757734406    0.16373599416176
N        -2.26610316066061   -1.24203369912774    0.33332446178610
H         2.75854939284419   -2.11993286545476   -4.28660707645596
H         1.26802322188080   -3.09856903466730   -4.49303583113562
H         1.17426510814943   -1.49407903373788   -3.73256995728415
H         3.24651641587609   -4.86854556531988   -1.42266960960683
H         4.87742989641263   -6.05052272289002    2.53130765704164
H         3.94978674649218   -7.50885884928707    2.06260947995149
H         5.58662091978531   -7.24311434850606    1.41590676626662
H         2.51932210877888   -5.73986768785567    2.70348506877774
H         0.49179039417347   -4.38070958500701    2.62079351549370
H        -1.55556196899671   -4.37529201883574   -0.57123285780652
H        -3.84400041614585   -3.58890961971146   -1.49963301091905
H        -5.47290004865622   -1.71625545612084   -1.77983584084044
H        -2.88521299048790    0.70357121805575    0.63469197040838
Cl        0.35293250978777   -0.58741829978089   -1.03407408898866
