70
 energy: -120.380233578035 gnorm: 0.000657272408 xtb: 6.4.1 (afa7bdf)
Ir       -0.71793161013336   -1.22872717548975    1.26188647009426
C        -2.17593630379366    0.70926720768968    3.69019147582422
C        -0.96752589171221    0.04993918215931    3.12237955731695
C        -0.57253906929641   -1.28814775684784    3.49190701705466
C        -1.27223178084119   -2.14073785255136    4.49167140532855
C         0.74486601147416   -1.52747221036356    2.96787297714452
C         1.61360354916391   -2.67827953082281    3.33571572700606
C         1.11586787611325   -0.39175854164066    2.19001612728715
C         2.45015808830116   -0.14756655427091    1.57538701798046
C         0.04729338699052    0.59941012466905    2.28610800313495
C         0.21624371245511    2.01948388307135    1.81814581607820
C        -0.92218805393209    2.55820742785762    0.94428711165779
C        -0.57592263116851    3.96412092008571    0.46049339671027
C        -0.34235597515019    4.89629877306710    1.64689199711910
C         0.76881271886704    4.35527991706572    2.54286962512121
C         0.43525281840819    2.94654262777040    3.02587535234505
H        -3.04266546482355    0.05328279457553    3.64290072665876
H        -2.40931851947690    1.64337380546568    3.19260337462229
H        -1.98514067691243    0.92154954753931    4.74306433220651
H        -1.01820457864068   -3.18870311997315    4.36237166909022
H        -0.95870787222171   -1.83952172663995    5.49209448453478
H        -2.35021939291748   -2.02423815077520    4.42911562432294
H         1.03513598729415   -3.58691460528308    3.47758075432855
H         2.37620317266352   -2.86234812080419    2.58531846438489
H         2.11273235488807   -2.44481871740883    4.27714348628359
H         3.04133681781982   -1.05749995742138    1.54934644970414
H         2.34699214456221    0.23330257761232    0.56131039186474
H         2.98638217493984    0.59633403603200    2.16454326297615
H         1.12154047028151    2.05423924165267    1.20522425865158
H        -1.85573783316308    2.61082198973482    1.50474633400952
H        -1.06400832042014    1.89640843120888    0.08833928167830
H        -1.38768548415673    4.34935052746575   -0.15969280655622
H         0.32394853462385    3.92864255700040   -0.15725247397197
H        -1.26491839635361    4.98903063828855    2.22471402398720
H        -0.07666996358483    5.89222168607707    1.28755102836581
H         0.90572100515823    5.01308826776673    3.40342930511437
H         1.70706804998754    4.33993391234462    1.98394280104701
H        -0.46587339389427    2.98008967719536    3.63793849904931
H         1.24948184812717    2.56388309158499    3.64344022047402
F         3.92084448965302   -6.88797473485894    2.01566083590677
C         3.40848259300586   -6.82997232887376    0.76703023057531
F         4.43627339864972   -6.53780428675932   -0.04327168780426
F         3.02593481287003   -8.08302801597112    0.46708329584143
C         2.27906900391347   -5.84172291338877    0.67215529581198
C         2.50791153792690   -4.56163089511506    0.17873356510520
C         1.46960140683176   -3.65072277535147    0.13195943355303
C         0.19714392368541   -4.02563492638980    0.56130373941947
N        -0.85204781063132   -3.09625317399604    0.49831941873248
C        -1.94931689562858   -3.41028138642362   -0.12175808369340
C        -2.97086265805982   -2.41134199904641   -0.16691782828904
C        -4.17011260732435   -2.53542708688061   -0.87578489878881
C        -5.05761337991881   -1.48043452927160   -0.88615918940061
C        -4.71168509062283   -0.32064791758853   -0.18446425684921
C        -5.65186096556801    0.85716177842933   -0.19174251233281
F        -5.27537283271983    1.82682250605390    0.65031703474769
F        -6.89869155775987    0.50325618419024    0.15788678512393
F        -5.74264469854526    1.41465558732576   -1.41037638250155
C        -3.50807588237626   -0.25925355385574    0.49781159820025
N        -2.65778137618792   -1.28016415718991    0.51944500294233
C        -0.02844471270838   -5.31315536996210    1.04946342707396
C         1.01471939460877   -6.21699164810707    1.11445299315000
H         3.49077373027273   -4.28524943502500   -0.16984668934489
H         1.62135351060515   -2.65873600710538   -0.26574230421450
H        -2.06860248323073   -4.36280737453615   -0.62418400323425
H        -4.38267387284224   -3.44506454549151   -1.41369191290117
H        -5.99320545247687   -1.53743901109397   -1.42123970843006
H        -3.22244959741461    0.63169128316972    1.03732120720164
H        -1.01000902627223   -5.59352151018380    1.39754414178514
H         0.84984382930888   -7.21230293824325    1.49690186749702
Cl       -0.14284024056232   -0.52679564313318   -0.94054798491173
