88
 energy: -121.121564935256 gnorm: 0.000657096089 xtb: 6.4.1 (afa7bdf)
Ir       -0.86721967788595   -0.10340303037115    1.71012760968858
C        -2.75658580296219    2.10324000637095    3.62167632523697
C        -1.41974047333434    1.43971262607844    3.76659773309260
C        -1.26573212962523   -0.03109161897123    3.83337295506951
C        -2.40312308587768   -0.86892805921466    4.35104148205719
C         0.07027620058969   -0.25127924425926    4.47396300728372
C         0.58954564239322   -1.58742766042755    4.88398848330132
C         0.64702150438300    0.95275988188351    4.69026001553533
C         1.97824652985337    1.20972648168819    5.30223644574337
C        -0.25682651291141    2.01246970728417    4.23040906679393
C         0.11675838307835    3.45656335908798    4.29315455491905
C         0.08398179369737    4.10214807655412    2.90039698956234
C         0.60270077341810    5.53346887998320    2.97440896435993
C        -0.23214035358809    6.35555159198310    3.95275125715812
C        -0.23302019026591    5.70745264728021    5.33534047864467
C        -0.75395617867827    4.27499803193558    5.25785915927925
H        -3.46824881171659    1.45798029837680    3.11819851811581
H        -2.69391239943525    3.04167536040401    3.07892837785607
H        -3.14963163573310    2.31360423911293    4.61713907623732
H        -2.21319483589627   -1.93120025586320    4.23126703780131
H        -2.48908578205939   -0.66787809746360    5.41930943164234
H        -3.35004569657289   -0.61314890825925    3.88793864640693
H         0.55363153897057   -1.67347309941160    5.96996664823326
H        -0.00324460003544   -2.38775346835724    4.45711563635545
H         1.62691507478431   -1.70987004641702    4.58145074832663
H         2.42982999983966    0.28209700228397    5.63878336754101
H         2.64297237904829    1.67233629190983    4.57218337046906
H         1.88939084228351    1.88234955107471    6.15439780784448
H         1.14748122447272    3.52207703720757    4.65406731267063
H        -0.93623695360570    4.11208220073172    2.51371695844151
H         0.69840536476707    3.51538934417829    2.21424465010116
H         0.56681641877615    5.98766641296146    1.98168057530153
H         1.64616261035753    5.52995258123646    3.29909187345437
H        -1.25834468070824    6.42507180464176    3.58251070440747
H         0.16535731644932    7.37078663313234    4.01956304585131
H        -0.85800091433294    6.29040247776973    6.01532833752129
H         0.78395451412162    5.70936147762709    5.73551436772360
H        -1.78582967406275    4.29137091739725    4.90973833365100
H        -0.73440324989107    3.81622149662803    6.24837995385638
C         0.52257277642158   -3.75819143583662   -2.12060083590895
C         0.24555681381272   -3.86871933158064   -0.62387566511064
C         1.09621016743759   -2.90999374883594    0.21563751801794
C         2.55380373562830   -3.37976012637419    0.32369100294430
C         3.52212270436148   -2.24358114551853    0.63232143902872
C         0.51941456691821   -2.77696853718279    1.64776034854393
N        -0.72361025390072   -2.05539263420041    1.64586223266873
C        -1.85110846035361   -2.70395573516922    1.60141033252198
C        -3.03025635009850   -1.93070297274190    1.35056328395424
C        -4.30309313559228   -2.43860621222668    1.10405687855645
C        -5.29832464753817   -1.56546017150114    0.70054824624286
C        -4.98192807175028   -0.22944883884594    0.49085118304292
C        -3.69653953479328    0.22964215926265    0.76228521463570
C        -3.28012393230683    1.61181655129861    0.49501596012650
C        -4.14580559242265    2.68819268108001    0.69761870955313
C        -3.71490035555501    3.97999961773027    0.47335392025499
C        -2.41100283203278    4.22597237034514    0.04399613321022
C        -1.98841718016164    5.63576817295421   -0.16981856306358
O        -2.67978692191238    6.59360151869626    0.09450029150529
O        -0.76322566045566    5.72800946305568   -0.68924615522447
C        -0.26857949799621    7.03860858777947   -0.94654412325289
C        -1.55087905660350    3.15722767532879   -0.19302691396617
C        -1.98310795188563    1.86199339305468    0.02742985267505
N        -2.76154431501214   -0.60058589064375    1.25517065293166
H         1.55246216693511   -4.01306986918272   -2.35580275844000
H         0.33552258255513   -2.74604809922513   -2.47215431779130
H        -0.12432296544371   -4.43696948500059   -2.67117493914870
H        -0.81273940194455   -3.64643263226652   -0.46745036829524
H         0.42955510274813   -4.89365616618205   -0.29597304439954
H         1.08249001768952   -1.91749106147242   -0.24627952253817
H         2.63093635449453   -4.14969786992155    1.09360948600173
H         2.85086456425763   -3.83542406847364   -0.62137188039371
H         4.52892831244867   -2.63184499199788    0.76680570310457
H         3.23908953773044   -1.70926277927297    1.53508094046310
H         3.54109678322425   -1.52674301666391   -0.18528002991237
H         0.37635810228123   -3.77686740815916    2.06646582019630
H         1.23634143864849   -2.21803883394240    2.24800347589112
H        -1.89038115463507   -3.78303995603575    1.68481861126338
H        -4.49031874753801   -3.49405417317064    1.21288856692796
H        -6.29898852313034   -1.92075995957568    0.51348616455422
H        -5.71601141516147    0.45543017241712    0.09952492608245
H        -5.14588915001652    2.51693839143665    1.06346978891154
H        -4.37176430793989    4.82090490392915    0.63502804645310
H        -0.86892864770730    7.52333923900200   -1.71818692536761
H         0.75721530879393    6.91142109253722   -1.28126581050479
H        -0.30879486387380    7.64353498633436   -0.03875936375760
H        -0.55159121792359    3.34641221332217   -0.55065350749112
H        -1.33979372160540    1.04121793444499   -0.28874812616423
Cl        1.29428735690212    0.61258909904881    1.53969081122536
