73
 energy: -105.973223939092 gnorm: 0.000317292753 xtb: 6.4.1 (afa7bdf)
Ir       -0.60834042906691   -1.11090597202983    1.51650440417888
C        -1.99425496259002    1.33091939859133    3.75309308418426
C        -0.92039210808808    0.41193472313241    3.28921177468411
C        -0.86003850952252   -0.97022242574482    3.74078203934822
C        -1.86406149291033   -1.61187271981327    4.63468551981052
C         0.44605959219409   -1.47233451894444    3.47573152211703
C         1.02196327232226   -2.70387980922277    4.08570064592005
C         1.12438430644606   -0.48909140834577    2.67183811792590
C         2.55947425131575   -0.53165978772553    2.26754104861272
C         0.28919047498209    0.71347810554944    2.62841932961295
C         0.81802435096912    2.04817814262658    2.18472267477307
C        -0.05117157189944    2.79313911170969    1.16748565906793
C         0.63681352336452    4.08889574429570    0.74850325314524
C         0.89481027041501    4.97687534257153    1.96313491971829
C         1.74136071900270    4.23649578049129    2.99486300800541
C         1.06020815334763    2.93782724764035    3.41705979622285
H        -2.97386260076720    0.86548919937985    3.68501332982066
H        -2.01190413889817    2.26176894867459    3.19964736877631
H        -1.80913185642906    1.55277015697716    4.80557144618497
H        -1.77413619016339   -2.69408648832550    4.61400813261333
H        -1.69398933676098   -1.27560752292019    5.65825128994432
H        -2.87704832642676   -1.33395827962334    4.35724781182383
H         1.14280754137429   -2.52049258168933    5.15410489549042
H         0.36289191104069   -3.56078746910023    3.97205386561024
H         1.99877491477267   -2.94408177173430    3.67881684434379
H         2.94711977131940   -1.54578863455770    2.28335399711675
H         2.68964705170276   -0.12734888839774    1.26651865938563
H         3.14878475656632    0.07077320298716    2.95907414863285
H         1.78607037163230    1.87682993605699    1.70503277409051
H        -1.02547513939826    3.03508307556145    1.59007280746561
H        -0.20818506579362    2.15842853998639    0.29530549021445
H         0.01030507328390    4.61804835337380    0.02789968510170
H         1.58549969877805    3.86015285682209    0.25724043878557
H        -0.05882745327832    5.26501323152186    2.41173342100270
H         1.40454311699071    5.89121975608529    1.65290355059235
H         1.89608704451143    4.86885114553786    3.87153413623905
H         2.72207792499498    4.01675779601445    2.56646171187936
H         0.10958246300633    3.17158567056266    3.89518059007766
H         1.68402765764548    2.40931448100457    4.14035454703169
F        -3.87772623635065   -4.45474266694047   -0.92096121460754
C        -3.81846967945562   -3.17796685780418   -0.53085578412694
C        -4.85729803615268   -2.31030143701507   -0.80963954179598
C        -4.70272093604807   -0.98755242402627   -0.42487002925291
C        -3.54463502079688   -0.60900359559179    0.24370483367544
Br       -3.32381232883811    1.20000185666214    0.68031856266491
N        -2.57303395547532   -1.45356365605643    0.57357149134310
C        -2.67811402747775   -2.73602645888681    0.15141756286533
C        -1.51733494810708   -3.54558102364916    0.35379231406861
N        -0.46396984131223   -2.99231546183677    0.85596478083357
C         0.75897932369051   -3.76026989120981    0.84038950619963
C         1.36126448880757   -3.76704225763173   -0.57464608575136
C         2.68078482207269   -4.54541192084190   -0.60071612413531
C         3.17827780963380   -4.66178142865414   -2.01559635136353
C         3.98793629037987   -3.67704396175869   -2.56716465270871
C         4.42289667803134   -3.77398663479072   -3.87743072816288
C         4.04956200337924   -4.85742689075228   -4.65522211543152
C         3.23974233229701   -5.84282331261716   -4.11544292939788
C         2.80652514286210   -5.74313383906595   -2.80496299934532
H        -5.73890840983019   -2.65382135254075   -1.32721103369989
H        -5.46366279556484   -0.25398585710992   -0.63773916206408
H        -1.52289724437870   -4.57851645447871    0.02176796240051
H         1.47741969017889   -3.31116002620141    1.52199348059329
H         0.55648420263561   -4.78997311703311    1.15046032038332
H         1.52782835155084   -2.73984230620260   -0.90033644735421
H         0.65617536528815   -4.22574612597037   -1.26998421219050
H         2.52305639217115   -5.54360701368905   -0.18830152155304
H         3.42356875302329   -4.03200856086533    0.01069419957013
H         4.28553310657931   -2.82956432235085   -1.96707402364207
H         5.05641069509966   -3.00417052367404   -4.29385728860877
H         4.38983953840347   -4.93489381139573   -5.67760988351194
H         2.94740954801196   -6.69134005492140   -4.71720745020560
H         2.17900218886104   -6.51930468217530   -2.39034011579500
Cl       -0.02533529337465   -0.38827559815105   -0.66925105925268
