68
 energy: -115.054505849714 gnorm: 0.000414050904 xtb: 6.4.1 (afa7bdf)
Ir       -0.40614064440812   -1.10221675800654    1.90747457895043
C        -2.68084504176496    0.43030774118034    3.93379088241168
C        -1.29401784914679   -0.06877234884972    3.72521066868183
C        -0.82412047837372   -1.37334340323623    4.08963647269323
C        -1.62832799807247   -2.40562310718761    4.80211973468785
C         0.60933314150989   -1.39061950684858    3.92791482568443
C         1.51691297943231   -2.41331204015941    4.51957917778615
C         1.00651991263156   -0.14829485770332    3.35903053689825
C         2.40852416917701    0.32451889646693    3.19081895549345
C        -0.18548339430558    0.67644948635040    3.21749967565774
C        -0.16821315303808    2.12401383201997    2.94515125518716
C        -0.62210999601156    3.00190002766135    3.92844956602897
C        -0.55349132536659    4.36263107869794    3.69635408281601
F        -0.99029402518532    5.20501790783573    4.65471967361486
C        -0.05572448441937    4.89445460166653    2.52006907348690
C         0.38225418752187    3.99564487854923    1.56292004486888
F         0.86783448348673    4.47830788534607    0.40074551533813
C         0.33744105409263    2.62709251178980    1.74926229998295
H        -2.82171804893771    1.40192631079591    3.46871888316490
H        -2.85910292176457    0.53263399570396    5.00480552653086
H        -3.41737198931874   -0.27117197064299    3.54789125800015
H        -1.21288389909138   -3.39814571458174    4.65708641477936
H        -1.61932170496514   -2.18885562319875    5.87086072001028
H        -2.66109698850974   -2.39998018019560    4.46595232161886
H         1.55099526296340   -2.24964552069862    5.59776220547929
H         1.15543569755634   -3.42387037105382    4.35347971884049
H         2.52633616629946   -2.31729756754903    4.13401471088524
H         3.01290435982042   -0.41103830711153    2.66589984060025
H         2.43837681936585    1.25680296268114    2.63514665380022
H         2.84937480566204    0.48982130418036    4.17427790056530
H        -0.99762208112286    2.64140961004392    4.87186712207850
H        -0.00848801092958    5.95833267568104    2.35779420088456
H         0.67259790938618    1.96322100380012    0.96733777921186
C        -4.64069463389818    2.12682791695238    0.02521978167644
O        -4.78719824826931    0.88903995697161   -0.65599354344803
C        -3.94541511039132   -0.10511941933012   -0.41538919395020
C        -2.89036903950021   -0.07705080587076    0.50146252033383
N        -2.08072385309035   -1.11210210870234    0.69830662597100
C        -2.25096770127780   -2.24258563775794   -0.02013534593883
C        -1.25137425690094   -3.24349233659039    0.21307666991284
N        -0.31173547790295   -2.96355870882098    1.04770151471261
C         0.76882918821351   -3.88567406398280    1.26889479552315
C         1.11410789025091   -4.93741289757491    0.19550562315549
C         2.59561629019986   -4.54847995849223    0.30709844723949
C         3.28102959470737   -4.23699614909182   -1.00489347265757
O         2.71307726385455   -4.08803859725581   -2.05926161333832
O         4.59652699521374   -4.13355020051935   -0.83545011131464
C         5.38581172659225   -3.79666586274380   -1.97628876169948
C         2.18791139245918   -3.30067300166830    1.12340139495660
C        -3.29055526902480   -2.36852814978735   -0.94559045339631
C        -4.13939537690205   -1.30385481940352   -1.13948546343462
Br       -5.57758159815393   -1.38907921213913   -2.37549513685459
H        -4.78838057669533    1.99806261381308    1.09915205151609
H        -5.42130024707829    2.76883960151520   -0.37663572544934
H        -3.66324211388842    2.56921490204073   -0.17539380185972
H        -2.68791849256182    0.80997621501333    1.08115512907056
H        -1.29114120223872   -4.18376329975489   -0.32273071848417
H         0.61743102454874   -4.34046726317932    2.25138139863855
H         0.74889668084714   -4.67755528312893   -0.79646125478789
H         0.86333116043060   -5.96788039093268    0.42880609191091
H         3.21300264015110   -5.24025310715346    0.87691326682037
H         5.29401554122770   -2.73043494385169   -2.18972628293958
H         6.41148323434189   -4.04659206533282   -1.71952505173472
H         5.05227807432426   -4.36426712297648   -2.84638502691371
H         2.18660932843870   -2.39248330194372    0.52552199735081
H         2.74554118599568   -3.14132902132644    2.03871038950613
H        -3.41562120996022   -3.28249908221378   -1.50316770834463
Cl        0.67941628182229   -0.33203482827304   -0.07752330845410
