65
 energy: -121.347531240458 gnorm: 0.000629194212 xtb: 6.4.1 (afa7bdf)
Ir        0.02046490041966   -1.20309533647121    1.54118449821071
C        -1.61324932336850    0.05428959099463    4.20613166655920
C        -0.32185105689715   -0.16487946381424    3.49978909176096
C         0.57416117391337   -1.24846808687686    3.76091774908287
C         0.39197369438704   -2.23611360830546    4.85963566241931
C         1.75673452551902   -1.04972589447932    2.96009103447185
C         3.03031759824713   -1.81846761308863    3.06353506716456
C         1.62941672367509    0.21091188579245    2.28293455743627
C         2.71422745497841    0.90627213903471    1.54823789359662
C         0.31992612513518    0.73030450028894    2.56464905007151
C        -0.15398143231586    2.06691431194097    2.17486424164824
C        -0.59831412218248    2.96111263899109    3.14708019344064
C        -1.01259032533608    4.22154291999205    2.75825492044274
F        -1.43623905930206    5.08035199889631    3.70519417751451
C        -1.01153758394670    4.63396109732819    1.43753212584596
C        -0.56497315968241    3.72306762751481    0.49600744509021
F        -0.55339649622964    4.08618513223935   -0.80090952619800
C        -0.13321706132999    2.45484129731387    0.83513417675573
H        -2.22601995021042    0.79369955356645    3.69837518724940
H        -1.41039876908863    0.40909533619242    5.21736156336249
H        -2.17087694411336   -0.87502343205570    4.29473574134489
H         1.19203877091688   -2.96886159063024    4.87314776080638
H         0.41092701564221   -1.69568198909568    5.80708798097167
H        -0.56890509073915   -2.74130874274775    4.79496116504449
H         3.62924162740629   -1.40309515947248    3.87455529030027
H         2.84598759080207   -2.86677599478156    3.27591279209624
H         3.59808158073738   -1.74110294763645    2.14112769709707
H         2.87690132278988    0.44916298720851    0.57228207137907
H         2.46303006908829    1.95223769227946    1.39404650226075
H         3.64289566030703    0.83167137676207    2.11062803656403
H        -0.59803885946224    2.70299290696651    4.19289235978492
H        -1.34245411694367    5.61939261467236    1.15540186045658
H         0.19702998173164    1.77430749913291    0.06528268587625
C         3.57593352438957   -6.85658790405114    3.67896984197534
O         2.57428189788121   -5.86874421826614    3.49935402652447
C         2.20729460900167   -5.52252716540744    2.25191222438868
C         2.75543436040340   -6.03827807073246    1.07548182361780
C         2.29293410427715   -5.60062404616685   -0.15411472669866
C         1.28425930336959   -4.66243988735117   -0.22366392326088
F         0.84324245557909   -4.25043317522942   -1.43058375478131
C         0.73130746470757   -4.11041220183420    0.94006927109667
N        -0.25917914238642   -3.11968126134757    0.87690394398808
C        -1.28744653511067   -3.30456974087632    0.10415287083262
C        -2.20042360972812   -2.21480593045485   -0.04965161878100
C        -3.32994226221039   -2.24070536789390   -0.87456839679217
C        -4.11046849057697   -1.10927096923283   -0.98057991581216
C        -3.73022872094474    0.02419840751149   -0.25343596990269
C        -4.55284793308799    1.28201753962636   -0.35213106442868
F        -4.62583137863110    1.73510601196463   -1.61292568514628
F        -5.81815201446723    1.08563753624297    0.05382431366726
F        -4.06213727254920    2.28172245974664    0.39257897837004
C        -2.60230117955297   -0.01625222975221    0.54810256590397
N        -1.85560897500171   -1.10902207433475    0.65774888513077
C         1.20129096567594   -4.55701079990137    2.16688456499014
H         3.68267314805445   -6.96490814575030    4.75603644256857
H         3.27229839726449   -7.81200124406678    3.24521416779884
H         4.52768455089278   -6.53725265098942    3.24800329014443
H         3.53534559611800   -6.78049221595823    1.10314671025872
H         2.70693031141503   -5.99051098077518   -1.07017846086002
H        -1.44871560680036   -4.23670796783276   -0.42442470192134
H        -3.56942460317033   -3.13531739020481   -1.42646863084067
H        -4.98777645150087   -1.08686045313222   -1.60855377395142
H        -2.29367990675370    0.85620265967629    1.10623512695157
H         0.75238818014952   -4.18992357394174    3.07318115478316
Cl        0.80276674873572   -0.82517919760688   -0.66683029947177
