72
 energy: -97.978004036887 gnorm: 0.000583075474 xtb: 6.4.1 (afa7bdf)
Ir       -1.02812060516770   -0.86797362256564    1.47045540909389
C        -2.94071922202924    0.85197723506940    3.80159211012335
C        -1.68595576712624    0.14025466423807    3.42776467574962
C        -1.48200871190690   -1.27663350410369    3.61297699756080
C        -2.47240241379343   -2.20634101578898    4.22975633867460
C        -0.08078829099730   -1.54882822887628    3.43239805731097
C         0.60717435488150   -2.79416817881703    3.87288844433456
C         0.53865261117058   -0.35317607710709    2.97328795803245
C         1.99815581349970   -0.11583092631869    2.78094811236721
C        -0.46091593637608    0.70425501103430    2.99494229118799
C        -0.13212601887446    2.14796143817801    2.81103485073035
H        -3.04270439186301    0.82617330957649    4.88721082506581
H        -3.81618090504837    0.36936147270668    3.37265342709922
H        -2.92386362196004    1.88922810485693    3.48296065497463
H        -3.48674926058089   -1.94090552011693    3.94516737027369
H        -2.28317598023849   -3.23558784843767    3.93713154280372
H        -2.39800571348621   -2.14469395389819    5.31618955397815
H        -0.01269809851920   -3.67470277689753    3.72467844484268
H         1.56083557591830   -2.92594095126702    3.37003981632770
H         0.80634222726168   -2.70829116306113    4.94249148923889
H         2.16616761795492    0.57785351881525    1.96073529766689
H         2.52660396399732   -1.04037182597143    2.56895381405184
H         2.41710931645677    0.32189981005559    3.68759413331605
H        -1.01574198791069    2.77399168496397    2.89472528503773
H         0.32838988256836    2.31618976393609    1.83831756434960
H         0.58288470944062    2.45443402339850    3.57444823970097
C        -6.21249635226441    4.88465224809823    1.73716455376169
C        -6.02445023657076    4.74447428625092    0.23000467633248
O        -6.28359946683522    3.42298999016961   -0.22885508104091
C        -5.39319294131100    2.43588013123142   -0.04659198050703
C        -4.10019649452972    2.59304381376036    0.50557413784725
C        -3.26645327406951    1.52055705757136    0.65421999553007
C        -3.65342086087101    0.22848837016289    0.25201965722606
N        -2.82093019344267   -0.82560286404588    0.40768845338999
C        -3.14496542280148   -2.00322646349550   -0.14400735254595
C        -2.10090443011353   -2.98120129765098   -0.09148995399327
N        -0.98977688721050   -2.64997643023012    0.47307199104124
C         0.12541550253695   -3.56210504450806    0.42815546861910
C         1.36502837867057   -2.95499716191648   -0.26695022968487
C         2.64272319006144   -3.53279638175887    0.36033314921438
C         3.91307994687521   -2.81066809166351   -0.07849957214483
C         1.35052101417118   -3.20810130179113   -1.77922248293435
C         0.14405143094342   -2.62180841575662   -2.50619941288649
C        -4.38624432926207   -2.22756051373023   -0.77509533611879
C        -5.28891798489585   -1.20826807410877   -0.85164492615711
C        -4.93445734712945    0.07152480001750   -0.36236423652156
C        -5.78087334755226    1.17662119396047   -0.47799852271067
H        -6.07068487195538    5.92285312432088    2.02255316096600
H        -5.50161269905829    4.26832860060143    2.28160340307732
H        -7.21822184478328    4.57861919241033    2.01422233146129
H        -6.76358830033466    5.35415348843646   -0.29521078346419
H        -5.02549412892488    5.07095833597752   -0.07915913747196
H        -3.75120436980391    3.56933090168692    0.80072110469474
H        -2.26758419435156    1.65901218235577    1.03439371297729
H        -2.23895103006889   -3.94762967417676   -0.56528648817365
H        -0.16497008586134   -4.48693580433605   -0.08006208073071
H         0.39251095079863   -3.80598194278486    1.45811610715782
H         1.35068212810856   -1.87413574665320   -0.09534545919194
H         2.57188048661231   -3.45775445481337    1.44698832723407
H         2.72338756535000   -4.59255825740264    0.10964549381103
H         4.14080761687064   -3.00172935167219   -1.12325178908876
H         4.75931594897542   -3.15307760644336    0.51292968681069
H         3.80798744266645   -1.73683771952410    0.05796151168634
H         2.24799352520649   -2.75448286705441   -2.19994273245078
H         1.40711419020132   -4.28343505186453   -1.96789421821262
H        -0.75342872186758   -3.21051793854999   -2.34074956781357
H        -0.04005192169144   -1.60391754732078   -2.17286616335006
H         0.33265773175508   -2.59966712171004   -3.57730876763626
H        -4.59704980339363   -3.20386735824828   -1.17917177552381
H        -6.25899135430890   -1.34945013075390   -1.30168402363231
H        -6.75126988225426    1.06090041765637   -0.93341229119999
Cl       -0.07114241956634    0.37474003569310   -0.33439126154048
