60
 energy: -108.088726058214 gnorm: 0.000511711953 xtb: 6.4.1 (afa7bdf)
Ir       -0.18307344980110   -1.07300335464900    1.50059881349214
C        -1.87954949315131    0.39407907999986    4.03616886243857
C        -0.57387237882955   -0.02658824216880    3.46135556553588
C         0.08291460828113   -1.26999638215372    3.72040056116521
C        -0.39520928902489   -2.32454211208989    4.65479676355159
C         1.38812632903777   -1.22252708569459    3.10474315281867
C         2.49563305334933   -2.18729433435262    3.35072723802383
C         1.52569439941389    0.03508966006502    2.44673576766158
C         2.78357233233724    0.56447779037578    1.86047297203777
C         0.28669207177477    0.76527273178723    2.62378936858701
C         0.10000237366317    2.18503291697629    2.28065366593271
C        -0.19089582086079    3.10390239651095    3.28729067991749
C        -0.31387709952734    4.44106053460316    2.95843680030864
F        -0.59062649784741    5.32354697775405    3.93863520752852
C        -0.16152478354716    4.90929143826226    1.66534372705646
C         0.12518351868175    3.97107415242059    0.68900843804504
F         0.27790563248355    4.38833441983812   -0.58312990242539
C         0.25735649038737    2.62381258516973    0.96755944673469
H        -2.25210298447519    1.29198457975396    3.55215618843950
H        -1.74575743740528    0.60533532883929    5.09776811807142
H        -2.62330026488720   -0.39527782232911    3.95384845418544
H        -0.01451063643066   -3.30258430664020    4.37368783327374
H        -0.02921716426329   -2.09822974292273    5.65701224040333
H        -1.47995140211875   -2.35658295353158    4.69189891786199
H         3.01779719564347   -1.88907701427050    4.26086745253181
H         2.12265984993080   -3.19740817757437    3.49208602000867
H         3.21200211895206   -2.18007240571345    2.53507141858663
H         3.19368417814386   -0.12010834885868    1.12143661412461
H         2.61996878624195    1.52841034306029    1.38845717306481
H         3.52093817755280    0.67963584548959    2.65543577344574
H        -0.29326694760209    2.79857845782106    4.31540096416404
H        -0.25829016240046    5.95602697415003    1.43002604383985
H         0.46387427592184    1.92792568543951    0.16918955228879
O         4.62431356072241   -6.66547488458300    0.95988159529543
N         3.50213090858469   -6.92758919190259    1.34842362260719
O         3.18025143615555   -7.99383924099764    1.83692240883760
C         2.49130260211175   -5.91295004754289    1.22108763343722
C         1.19864155418685   -6.17560270276620    1.66534367772120
C         0.22511597000324   -5.20632108437921    1.53116935776079
C         0.55006946463421   -3.97124736603095    0.96439267086893
N        -0.42684097659077   -2.97619818442679    0.82049375941129
C        -1.52780186104916   -3.23589720725237    0.18658439732128
C        -2.46890183230363   -2.16607008096896    0.05675968937319
C        -3.67282989585325   -2.24672487070248   -0.64879040386070
C        -4.48137570628309   -1.13247394429918   -0.73613925548888
C        -4.05386511304074    0.04261091817391   -0.11717409073058
Br       -5.11323555298824    1.62147897550000   -0.18679026792502
C        -2.84527889898767    0.06231420619136    0.56896958614623
N        -2.07715227831459   -1.01450711286995    0.66177205844437
C         1.85239086670557   -3.71236183364393    0.53113500245556
C         2.82176197395220   -4.68598120445276    0.65108350696014
H         0.97557232679707   -7.13662410793394    2.10242324682689
H        -0.77941258001448   -5.39292433469372    1.87740958773479
H        -1.70978333224517   -4.20333972352732   -0.26671416563219
H        -3.95651558403690   -3.17349712859601   -1.12216682695222
H        -5.41668082975730   -1.16051453301039   -1.27246137703838
H        -2.49759314062235    0.96806269116561    1.04352252095475
H         2.07355136499844   -2.76016167155979    0.07467122226594
H         3.83102896141054   -4.51809027727490    0.30881136954789
Cl        0.55578801229066   -0.56603467313162   -0.70337441913075
