65
 energy: -129.811450905317 gnorm: 0.000373915231 xtb: 6.4.1 (afa7bdf)
Ir       -0.40031801437838   -0.83636205396419    1.87984514564001
C        -1.68755404703199    1.02211521795006    4.43108908983679
C        -0.49710317686731    0.43836429249358    3.75712679465303
C         0.10866330917665   -0.81361226616925    4.10120238306420
C        -0.29858144273895   -1.65308067003195    5.25858036638289
C         1.32056704095836   -0.94806333089679    3.32633803472851
C         2.38768594664993   -1.96806010666146    3.52518820057010
C         1.46413219223370    0.21969552405678    2.51691420749256
C         2.67485988635586    0.57213449448032    1.73614615435178
C         0.31032498370870    1.06540447127481    2.74844972042831
C         0.18311671153964    2.45799687929127    2.28606700657184
C         0.11044449156591    3.48399980618535    3.22728012748311
C         0.04219134123746    4.79252466584876    2.78691406921013
F        -0.02172909266808    5.77853364667559    3.70224091912965
C         0.03778221522169    5.12953131121569    1.44465325296629
C         0.10756117008580    4.08748408115847    0.53703036863518
F         0.10210935681922    4.37418134082878   -0.77960998114152
C         0.18121356170495    2.76377333570466    0.92775880983567
H        -2.03859667965300    1.91309303326002    3.91797965839125
H        -1.41420286026785    1.29820556065517    5.45010227681371
H        -2.49909194666692    0.30122148580718    4.49927910355395
H         0.07173789962836   -2.66940084807491    5.17459599103306
H         0.13243383620562   -1.21492282759686    6.16022702665671
H        -1.37736252338273   -1.66198197458192    5.38284141566768
H         3.18117411076877   -1.52703257102247    4.12936828380743
H         2.01258546073196   -2.84421833651836    4.04263615011518
H         2.82265559547157   -2.26914292045082    2.57520298271816
H         2.93287526129744   -0.21834037715407    1.03444492207150
H         2.53144181480009    1.49654041947716    1.18486243843757
H         3.51417357806606    0.69175564628791    2.42176607619241
H         0.13488314324122    3.28125868973316    4.28529734160936
H        -0.01594629284636    6.15564500318102    1.12134874285130
H         0.22190493409639    1.98599719067418    0.18162761702147
O        -0.14597392898475   -4.31907406041009    3.48025350294554
C         0.53302009386654   -4.46197593689279    2.34036535963064
C         1.58034302768724   -5.38373638490233    2.29863399362100
C         2.28389209742278   -5.60404748961198    1.13432842215936
C         1.93684806669878   -4.90988218435749   -0.02344497196906
C         2.70138838313426   -5.12323377030497   -1.29767715721410
F         3.68258562041666   -4.20825363591354   -1.46140280430194
F         1.92352206614473   -5.02645093944565   -2.39050445513437
F         3.29939765705648   -6.32230447907559   -1.35969014292831
C         0.90526885722213   -3.98599975067230   -0.00749435397561
C         0.21586380191840   -3.73882385554627    1.17597858910233
N        -0.78352726155492   -2.74570791880897    1.20633006763723
C        -1.80980257435127   -2.85473784223480    0.41570728585235
C        -2.72006824726266   -1.75294768707634    0.37381879586837
C        -3.89818843174583   -1.73167880921440   -0.37886603850843
C        -4.68558042139850   -0.59973786911967   -0.36274821935951
C        -4.26056868791960    0.48787073585749    0.40754718794029
C        -5.08817546660401    1.74783827144810    0.43594451154154
F        -6.39129469473403    1.48672896888430    0.60928813807559
F        -4.98575914074594    2.43707202970820   -0.71269741100855
F        -4.72394923541339    2.58046618014225    1.41950883813830
C        -3.07828061858322    0.40861460440621    1.12458778926670
N        -2.32642037509097   -0.68784301278771    1.12291526571324
H        -0.94212082948088   -3.77690626757790    3.37128189019415
H         1.81805957981909   -5.92739491944674    3.19829212106557
H         3.09016166585169   -6.31960693673548    1.11185684005177
H         0.65515500986031   -3.42355385338182   -0.89365629693272
H        -1.96364612505077   -3.73557674820200   -0.19658030353168
H        -4.17529914248216   -2.59264931294813   -0.96602375461089
H        -5.60511260990692   -0.54536151654626   -0.92494551941102
H        -2.73511489443520    1.24527419423085    1.71583463488844
Cl        0.24006599359257   -0.53181661643768   -0.39205850156693
