71
 energy: -119.914311291707 gnorm: 0.000148842649 xtb: 6.4.1 (afa7bdf)
Ir       -0.00464233861473   -0.56843173777998    1.42540261537447
C        -1.54150494945262    0.70489910063352    4.12183419934500
C        -0.26824364392285    0.31287079542842    3.45673646084775
C         0.39253242410273   -0.94544350833086    3.59736545870100
C         1.64631820935115   -0.87346595568203    2.88791023042138
C         2.74928343136139   -1.87389944278379    2.96954239620951
C         1.78442750061336    0.45419258703673    2.36242704075682
C         0.57829117460712    1.17411444002165    2.65945755346690
C         0.37431761933177    2.60551272317952    2.39973276689366
C         0.06716707868256    3.47996292324448    3.44110899292879
C        -0.06623787411036    4.83275742620023    3.19889123877889
C         0.09814832792842    5.35226201049065    1.91535764535106
C        -0.01843989716491    6.79643656502306    1.66559687735456
C         0.87028986017852    7.43608102971187    0.80315893038900
C         0.77193582351341    8.79579485296848    0.57270653216910
C        -0.21982974003397    9.53776412551435    1.19361925187436
C        -1.11094748708980    8.91137164467392    2.04983552708949
C        -1.00903854334307    7.55309460461460    2.28849275419616
C         0.39124427084706    4.47104395381053    0.87496941469835
C         0.53142695623801    3.11861730421472    1.11164515186055
C         3.00994092920096    1.00914671409229    1.73255289883345
C        -0.04931453109259   -2.07348432843563    4.46146627939590
H        -1.34549720397313    0.91263132526397    5.17438535297878
H        -2.27380614492668   -0.09775258571811    4.07677907466504
H        -1.96019039319531    1.59836778192497    3.66724880143952
H         3.36010946056668   -1.65421269631555    3.84605954279881
H         3.38548518859855   -1.82309002103034    2.09098120234002
H         2.36386738856552   -2.88427917317078    3.07154899712518
H        -0.02955019560896    3.10481430705355    4.44762851314987
H        -0.27350297077539    5.50191681513601    4.02017149392468
H         1.65738234636720    6.86899424323713    0.32778933691523
H         1.47251304389686    9.28006841533461   -0.09211660896826
H        -0.29715261152097   10.59965673973312    1.01149675630638
H        -1.88811241483392    9.48532742424985    2.53343677435684
H        -1.71716073040709    7.07272840761312    2.94763066594843
H         0.49902517912293    4.84971534139365   -0.13004723271370
H         0.75213502268553    2.44731125860585    0.29445419689006
H         3.12778347194144    0.63673223826222    0.71514254705387
H         2.95864237723527    2.09417679733714    1.69218049346929
H         3.88502643711697    0.70557682817736    2.30404187536096
H        -1.12745715067084   -2.07272441873600    4.59210390317719
H         0.26339168405104   -3.03012701889040    4.05064971052401
H         0.41122638339942   -1.96409638446475    5.44407002887083
F         3.38253994437665   -7.26448344391534    0.58289210518844
C         2.39432457856919   -7.12518820115374    1.48008660163542
F         1.65748888477491   -8.24670879670978    1.41628200985442
F         2.98869774833902   -7.14035097707761    2.69407449803278
C         1.58077979917353   -5.87855528502539    1.27208194530721
C         0.26440500207947   -5.83759018164493    1.71837092143065
C        -0.48121030404053   -4.68589110955973    1.54723267298346
C         0.09722393669081   -3.56848325398302    0.94572175390521
N        -0.64049597818661   -2.38842359091814    0.76405843827142
C        -1.75814611425893   -2.41708310746954    0.10910542930333
C        -2.44167101678745   -1.17172529354645   -0.06926940905313
C        -3.61057215295960   -1.01170800366712   -0.81907239547934
C        -4.15626069264682    0.24708433428281   -0.96007955324736
C        -3.50575450009416    1.31866307258705   -0.34790353046809
Br       -4.19079023609742    3.08529235243161   -0.49711357470593
C        -2.34774989121032    1.09732323210661    0.38710485399560
N        -1.83296131546184   -0.11591173954259    0.52870825350051
C         1.42210688070372   -3.61092562497176    0.51406772156528
C         2.16140296966198   -4.76701429528811    0.67003495541769
H        -0.17366682122014   -6.70511753055052    2.18671536716851
H        -1.50128477406298   -4.64554792586915    1.89540490188240
H        -2.13896000596688   -3.33212531642997   -0.33000793998362
H        -4.06914102962936   -1.86833154409836   -1.28657704539269
H        -5.05769019666286    0.40561427198630   -1.53072122765822
H        -1.82928879222051    1.92093059033899    0.85871408675196
H         1.84734312898436   -2.74344388920515    0.03423275679985
H         3.18154121026318   -4.81177243663346    0.32259810645399
Cl        0.88761296930196   -0.26045975919919   -0.75469634578467
