78
 energy: -106.246641845302 gnorm: 0.000378057972 xtb: 6.4.1 (afa7bdf)
Ir       -0.55413439190935   -0.61808331813379    1.94303803584764
C        -2.42747332237623    1.26193549895880    4.15436625288670
C        -1.11342219647047    0.71941014749061    3.70572031123739
C        -0.60452796632694   -0.54714130559558    4.17624940686896
C        -1.29658376141648   -1.42341946170998    5.16445795682982
C         0.77754340856285   -0.64198066492978    3.79173912377698
C         1.75609820352736   -1.62699601437490    4.33246691279193
C         1.07676767736000    0.48248106492864    2.97246332008852
C         2.42801262863071    0.85470296151359    2.46155098202114
C        -0.10126809318774    1.34396379865045    2.92787137046871
C        -0.05414001053745    2.74945578864540    2.39354324890706
C        -1.18047540777278    3.11873784679277    1.42234180288509
C        -0.95320646650697    4.52947207381307    0.88567592509274
C        -0.90500010289652    5.53667005125649    2.03226233430202
C         0.19308790248141    5.16472298196871    3.02538327290969
C        -0.01773898630307    3.75084469281772    3.56009309823290
H        -3.21375964457227    0.51488928133460    4.06650618636530
H        -2.71586036349573    2.15037396741762    3.60444773777078
H        -2.34403957436434    1.52602414480424    5.20970681990981
H        -0.91780368254598   -2.44057023930746    5.12640304026168
H        -1.12511654164807   -1.03449490609058    6.16891194315928
H        -2.36857731828711   -1.44311878359544    4.99004245997138
H         2.21037274567802   -1.19921342276379    5.22742254303394
H         1.27085334761094   -2.55572058949176    4.61990535305182
H         2.55387619471271   -1.83494032389506    3.62481694697630
H         3.10604584234984    0.00732695812509    2.49728567671971
H         2.37256768564946    1.20970283205789    1.43454598188168
H         2.84172595352134    1.65384369955832    3.07695377081386
H         0.88227384040547    2.85437620359042    1.83766112936395
H        -2.14936949619227    3.09395187067014    1.92099488904430
H        -1.19355328540891    2.40456607365667    0.59792649466592
H        -1.75438574265215    4.79329133768506    0.19226910568172
H        -0.01246551902352    4.56382775304482    0.33153476743773
H        -1.86994669404446    5.55231701096159    2.54499362902328
H        -0.72391684540781    6.53898633320886    1.63900573125674
H         0.19826503779511    5.87350639991390    3.85612445999624
H         1.16436706644590    5.22786478651495    2.52904867770163
H        -0.95609381724546    3.71085350975100    4.11370403771104
H         0.78969322302870    3.48976636103456    4.24682855264370
C         1.60121114367562   -4.47200815685819   -1.55318844118444
C         1.60788385953061   -3.02982066357049   -1.05755663441455
C         1.95043545134123   -2.80563860962276    0.42230943864583
C         3.32541161609277   -3.36041291349119    0.83836237869018
C         3.36808527423494   -4.81421677762781    1.30440804096629
C         0.83436153022665   -3.32375086854748    1.35743318451241
N        -0.35401839073985   -2.52296642341747    1.24009201551855
C        -1.32915353125777   -2.95821113907440    0.51645928151147
C        -2.47874580142215   -2.11143269695620    0.37627235106183
C        -3.58414326953514   -2.40605600252384   -0.41758123575464
C        -4.62289650747523   -1.48996957038393   -0.49496283772727
C        -5.80617283306505   -1.81226718925736   -1.35186151415479
O        -5.90345213897567   -2.83603494732888   -1.98650622308524
O        -6.71981326379565   -0.85147451947050   -1.32337132506452
C        -7.89766050973138   -1.05231231746703   -2.10459449049314
C        -4.51779396496174   -0.29737696573282    0.22539991338728
C        -3.38894620271900   -0.07684383288672    0.99105510149460
N        -2.39287294036546   -0.95603777945962    1.08113546266350
H         0.95988613564140   -5.10997396006166   -0.95026127011401
H         1.23147951539306   -4.49914271972537   -2.57621649679024
H         2.60457794313462   -4.88832354520314   -1.55514164236617
H         2.33074929436208   -2.46648486512867   -1.65138379868852
H         0.63198629392229   -2.57752140425605   -1.25053619754930
H         1.98716233183450   -1.71753357125184    0.55022499837591
H         3.99932701203073   -3.24051608498396   -0.01132965405014
H         3.72295371645118   -2.74185999535288    1.64618349689106
H         2.95644753300221   -5.49052006641479    0.56374843141348
H         4.40332950856064   -5.10032541488512    1.47792072983767
H         2.82794145381971   -4.95072083261057    2.23711436441757
H         1.18919087121954   -3.26089379307099    2.38514485036370
H         0.60996477262073   -4.36476324977970    1.11514028909978
H        -1.29738097291491   -3.92404778784817    0.02454317254868
H        -3.63737952712970   -3.32709788002063   -0.97677194356326
H        -8.55775282995604   -0.22261230779556   -1.86877683742878
H        -8.36222123813813   -2.00567343524160   -1.84768613942645
H        -7.64733234239728   -1.05590256917740   -3.16665326317515
H        -5.30300783567539    0.43870659730391    0.18400127571657
H        -3.27796791659278    0.83951275804522    1.54999577549674
Cl        0.01853623227931    0.12464810072657   -0.25428489715342
