78
 energy: -120.901473709901 gnorm: 0.000312382589 xtb: 6.4.1 (afa7bdf)
Ir        0.19533127878784   -0.74390202094257    1.80644513244443
C        -1.37778732058565    0.55848189467422    4.50116727206485
C        -0.10316491452787    0.16735935185289    3.83666337410107
C         0.56558097101963   -1.08237821945599    4.02421671826425
C         1.81868545243273   -1.02670931311886    3.31653897535066
C         2.92057540513353   -2.03016382108993    3.39587920256375
C         1.95511399001062    0.29007890038805    2.76356436112166
C         0.74558045942073    1.01481667960393    3.03608776811069
C         0.54527179302810    2.44478272458441    2.76232715395562
C         0.27188051755031    3.32896128604439    3.80476380411035
C         0.14676755710451    4.68157440768996    3.55751458353610
C         0.28689618660833    5.19093255392647    2.26728833580337
C         0.18079454781963    6.63529410828335    2.01314029008334
C         1.05867759779940    7.26290376620644    1.13125818616605
C         0.97154476876667    8.62342447999736    0.90034770283325
C         0.00190384214570    9.37810582682391    1.54037164768997
C        -0.87986645383839    8.76330628089178    2.41448594177415
C        -0.78926184209591    7.40426703701492    2.65298473296626
C         0.54431925024935    4.30010351747659    1.22610802312765
C         0.67514766275298    2.94758313003596    1.46815420868682
C         3.19137389960749    0.84292609036697    2.15135287051912
C         0.12987494210392   -2.13033149833007    4.99011091905869
H        -1.18139683563588    0.77214726422513    5.55270787541522
H        -2.10399149291329   -0.24998861405321    4.46180002816777
H        -1.80374703341330    1.44828511663711    4.04593551798961
H         3.48390306211027   -1.87648361490520    4.31667063168862
H         3.59818817568145   -1.91904145521238    2.55424875133276
H         2.53335695326641   -3.04575171132810    3.39440989728912
H         0.19234096785704    2.95973040533767    4.81530025677719
H        -0.03445631530650    5.35817197735146    4.37896460551288
H         1.82890748203462    6.68552759646137    0.64075881781998
H         1.66406094466743    9.09835422385827    0.22048731923384
H        -0.06574394868672   10.44081929394640    1.35902268883548
H        -1.64085777759000    9.34672168201183    2.91236479590993
H        -1.48975564665545    6.93231789995868    3.32631451330306
H         0.63111177295033    4.67117096744689    0.21603247193636
H         0.86748679425915    2.26843279521941    0.65047581700351
H         3.40631429469863    0.36206578344440    1.19779318647486
H         3.08730572276848    1.91115312362532    1.97899687320312
H         4.03566587142956    0.66318293465651    2.81571500552431
H        -0.89060471547217   -2.45564470294042    4.79944737325615
H         0.79740762143978   -2.98561948945885    4.96653485215877
H         0.15458431154541   -1.70581116776789    5.99463416023295
C         4.84963771607367   -9.21632522143131    1.22883345059248
O         4.11709069522484   -8.75580614946439    2.34675865997047
C         3.30695738876194   -7.68383821797841    2.20197992084886
C         2.62126342959627   -7.29236422821117    3.38023252617216
C         1.77769663075312   -6.22509903707936    3.37342094851096
C         1.56639787464492   -5.47560477250458    2.19130198939211
C         0.72286394187083   -4.35434155007077    2.16112333646514
C         0.52085458329756   -3.65667693185748    0.98925462864555
N        -0.32025512187624   -2.53885178505529    0.96165145287507
C        -1.27917686121496   -2.48516426469178    0.08833491536670
C        -2.02321300337327   -1.26783297756577    0.00113866786817
C        -3.09216651839034   -1.05329646320807   -0.87510610293872
C        -3.71727400592103    0.17433729337237   -0.89272477758241
C        -3.24438224522959    1.16284116724156   -0.02851369893499
Br       -4.06064378647752    2.87957909372165    0.01997325071667
C        -2.17623174923959    0.89526404761325    0.81429185019107
N        -1.58253862257450   -0.29187020698170    0.83667390384336
C         1.16664066449309   -4.07055840250490   -0.19888410011442
C         2.01553041747037   -5.13728865685625   -0.18014480882586
C         2.24243426191948   -5.87296208611594    1.00565691036867
C         3.11082536597734   -6.97904221623676    1.03478025908353
H         4.18319779047128   -9.53684994001356    0.42338694313495
H         5.42281175058762  -10.06934582816776    1.58616205995026
H         5.53286959963401   -8.44666615912769    0.85922209732294
H         2.79469170277691   -7.87152352443151    4.27306073739884
H         1.26057032461835   -5.93791583956580    4.27631466267431
H         0.18625930730551   -4.06887804307678    3.05119890535572
H        -1.50592598987920   -3.32562121743042   -0.55750479157823
H        -3.41027971950355   -1.84624746863768   -1.53241900078390
H        -4.54354422472094    0.37500926915391   -1.55621065311050
H        -1.79353890120742    1.66208592107575    1.47257130305190
H         1.01176990347270   -3.49729831306045   -1.09967488266781
H         2.52666798958418   -5.43584562000430   -1.08294588984646
H         3.61192089658496   -7.25595050451397    0.12096352689763
Cl        1.16465571394461   -0.36565863764847   -0.33392484373797
