81
 energy: -124.341616399312 gnorm: 0.000405496510 xtb: 6.4.1 (afa7bdf)
Ir       -0.58993350395512   -0.68025845090736    2.07460652544064
C        -2.77486051543971    1.07179329570966    4.07557063259938
C        -1.46200097486477    0.40175610070631    3.85944619870450
C        -1.15281416825960   -0.95880260439659    4.21655334519062
C         0.27659059513965   -1.12101661583736    4.14544305688965
C         1.02687454449671   -2.27485231787959    4.71622304264232
C         0.83358053932655    0.08485719541199    3.63696369190158
C        -0.25179615905859    1.03673699170052    3.46187789836892
C        -0.08272915197841    2.46980445384155    3.17793580135948
C         0.71253906442893    3.24245945596022    4.02203440001676
C         0.87283615858719    4.59383791924294    3.79066549789524
C         0.25744747149985    5.21022114407946    2.70272030512421
C         0.45124089965197    6.64424869259979    2.44173341382268
C         0.65884354807385    7.10553042913366    1.14327536225538
C         0.85228308264012    8.45244476929594    0.89745255236403
C         0.83525536625122    9.36116239152630    1.94315409839095
C         0.62461270074751    8.91392345701550    3.23754373990112
C         0.43717359688732    7.56660620464096    3.48616318436872
C        -0.53601682575556    4.43304694973038    1.86115711080720
C        -0.71024846313833    3.08440599308717    2.09830326058586
C         2.28216785978907    0.42699883212101    3.53944835651343
C        -2.09921972995599   -1.90856248260237    4.87052050233756
H        -2.91416357309132    1.21657414910661    5.14789791140439
H        -3.60414590649939    0.46710736709151    3.71575148143676
H        -2.79529341203334    2.04814144871239    3.59819191823204
H         2.04056433898397   -2.32378929011751    4.33184932387081
H         0.51928488212772   -3.21683833599894    4.52816214757849
H         1.08418892909574   -2.14185473574888    5.79767726179987
H         1.19496999465763    2.78379983851749    4.87136056970487
H         1.50349924734915    5.17623096195908    4.44591801022093
H         0.69222343067869    6.40074908665043    0.32497072232021
H         1.01965354349055    8.79540319907991   -0.11336759188214
H         0.98534501018815   10.41331056480287    1.74992236599185
H         0.60598720708029    9.61936525011671    4.05576598010613
H         0.25881096051022    7.22761820317819    4.49631538647641
H        -1.02693944353416    4.89549672952788    1.01806895111869
H        -1.30129031334361    2.49290639873428    1.41536165864077
H         2.86828705814900   -0.41240535400768    3.17688006036706
H         2.42771229742777    1.26892706948298    2.86743697332429
H         2.65909049579725    0.70098345765211    4.52553597704844
H        -3.11524459096398   -1.75242128763226    4.51982577653768
H        -1.81570003255197   -2.94030575818453    4.68337981996651
H        -2.08321040024564   -1.74382673074576    5.94855321952874
C         5.48292207574129   -2.38465188626741   -1.79938749790286
O         4.70777360900263   -2.90946222461867   -0.72196851029753
C         3.43750519352131   -3.21875777920116   -0.97203611976297
O         2.90574437528821   -3.10143425944030   -2.04880251452167
C         2.75146512816413   -3.70480592875526    0.28471076790738
C         2.22037132099613   -2.57724115571841    1.19777839149995
C         0.85673958296969   -3.29307816351331    1.25400409445435
N        -0.30122708626313   -2.45613327533865    1.08776825004197
C        -1.19481373288238   -2.75854107681278    0.20783580966381
C        -2.29200984839001   -1.85784079748097    0.03707817227836
C        -3.30236769807933   -2.01386578130942   -0.91722433750023
C        -4.28238661840828   -1.05622699108126   -1.03093331855944
C        -4.24140884377719    0.06432452092110   -0.18493936212800
C        -5.22984881142439    1.10728364447648   -0.24312799687263
C        -6.35515982935640    1.26130624238881   -1.02729259267568
C        -6.94290544536184    2.48065848992962   -0.64162022071247
C        -6.14487000780946    2.98700198578980    0.34535727941767
O        -5.11652636831368    2.17116906073814    0.59217304920601
C        -3.19644787282030    0.14352379578099    0.74491379325823
N        -2.26069224377487   -0.78321245486096    0.86348696572637
C         1.31320641488514   -4.20689537872631    0.09754314413478
H         5.74526679641807   -3.18389182907285   -2.49452648389591
H         4.91610308820059   -1.62021621396453   -2.33304328713750
H         6.37709771191362   -1.96205248242499   -1.34946625029003
H         3.41452243595927   -4.39103739313387    0.80939186796687
H         2.14879410707299   -1.61935298053107    0.68774761273496
H         2.74642220925960   -2.45888660100091    2.13822785663858
H         0.73390094436924   -3.84883988177193    2.18764844821926
H        -1.12691368938561   -3.65118747276615   -0.40155631605093
H        -3.29316958095182   -2.87995690976016   -1.55885099643637
H        -5.06670799374065   -1.15674748117227   -1.76240847625260
H        -6.71854798141334    0.59307794387568   -1.78008658290458
H        -7.83314594111576    2.92148969848884   -1.03925484245892
H        -6.20928833170405    3.88809237270500    0.92286463950980
H        -3.14407337134945    0.99670068170995    1.40425475206686
H         1.14793396407957   -5.27250365858841    0.22675719624254
H         0.94699665687970   -3.88646988312225   -0.87620407772765
Cl        0.44074202319430    0.35445246726220    0.18242979184477
