78
 energy: -117.324654001082 gnorm: 0.000331883854 xtb: 6.4.1 (afa7bdf)
Ir        0.36226255001955   -0.57351579590480    1.75942085272729
C        -1.22556491355481    0.75324495395796    4.43654698691611
C         0.04962015386404    0.32711853509752    3.79283867402185
C         0.67185241172387   -0.94719394004664    3.97849407475859
C         1.94609442199273   -0.92281325786036    3.30917728707363
C         3.01255064008401   -1.96302088096248    3.40720630578658
C         2.13482718347510    0.38802293240847    2.76782540676571
C         0.94195556168484    1.15168558652755    3.01867973372140
C         0.78664657191554    2.58801905163810    2.74772865541924
C         0.50410948958995    3.47518430176787    3.78515349107247
C         0.39309155694951    4.82885237002388    3.53589398016165
C         0.56010548254497    5.33687432867956    2.24837512693132
C         0.45225300805581    6.77995943742092    1.98697499318356
C         1.34000699175811    7.40871751292527    1.11581863893499
C         1.24476476864494    8.76639083955768    0.87216393234754
C         0.25783940194379    9.51771553450101    1.48955882232338
C        -0.63235313245578    8.90233622788217    2.35453863756501
C        -0.53459154029324    7.54577490211711    2.60463314858663
C         0.83955916729893    4.44476173308462    1.21392362166859
C         0.95224954591019    3.09102882295890    1.45765573926674
C         3.40268323548368    0.90634422258357    2.18897655102970
C         0.17764369079490   -1.99186056695617    4.91977690730643
H        -1.04585213193032    0.94001185022041    5.49611673813640
H        -1.98044868875475   -0.02627108934592    4.36475864844897
H        -1.60801876774303    1.66578616544717    3.98789381968181
H         3.55849434098294   -1.83558141787441    4.34229711454079
H         3.71428412336255   -1.86789643295510    2.58350654267342
H         2.59174505615323   -2.96485306343427    3.38722358713818
H         0.40154197859742    3.10633526154432    4.79390465767177
H         0.19938754721667    5.50633026024491    4.35395911757604
H         2.12338066154210    6.83411292281498    0.64327928873868
H         1.94407407099434    9.24169445284513    0.19953014320117
H         0.18337723173745   10.57809509608992    1.29745379008748
H        -1.40585167939124    9.48343314646099    2.83554182361839
H        -1.24197040752050    7.07316095552778    3.27029487914385
H         0.95269790424114    4.81503613221868    0.20612943085335
H         1.15196107275668    2.41073566658185    0.64279795328590
H         3.67170050721128    0.36569556414461    1.28277200946572
H         3.30993690495227    1.96135550586756    1.94509973044476
H         4.20807378357064    0.77364684187053    2.91099608055750
H        -0.85997784600463   -2.25212343971107    4.72273519309740
H         0.79258024943162   -2.88480408845513    4.87427209045315
H         0.22805017460722   -1.59444037155478    5.93443916891203
C         5.04704546624994   -8.98521504427323    1.01761608840264
O         4.83873201489922   -8.18247176503231   -0.12732070709182
C         3.96201780941591   -7.15434154939419   -0.05297329040916
C         3.83852524017369   -6.39081595638155   -1.24142243366302
C         2.99862243138361   -5.32185580668647   -1.29961438611376
C         2.22687521119217   -4.94647183122085   -0.17495304535209
C         1.35536355808746   -3.84730423346373   -0.20642117942075
C         0.64549314650901   -3.48280084343939    0.91834562759564
N        -0.17950837137858   -2.34967793926954    0.89166828884389
C        -1.13052510688154   -2.27357034493390    0.01616830717046
C        -1.85317650285479   -1.03777559997540   -0.05950742782461
C        -2.92496778366950   -0.79941243503627   -0.92126630234359
C        -3.52482196926111    0.44486537428159   -0.91563299504853
C        -3.03065467060885    1.42127689306182   -0.05589655867099
C        -1.95931168477442    1.11985669116711    0.76563595435148
N        -1.38461210597335   -0.08031334366833    0.77899637461606
C         0.75285253019728   -4.24560219145411    2.10018387811051
C         1.56783102005286   -5.34002250664806    2.13730675861485
C         2.34236757613587   -5.71369017524933    1.01577648387499
C         3.21708653257298   -6.81564357807109    1.05421140936182
H         5.42891031908983   -8.39089813966819    1.85252814253773
H         5.79242872379368   -9.72255932152989    0.72618223883209
H         4.12715905180643   -9.49567108314954    1.31648542335992
H         4.43570897990943   -6.68764454301688   -2.08897913169898
H         2.91378904765836   -4.74386787435724   -2.20738143148198
H         1.28351665333174   -3.24992766380417   -1.10285955140564
H        -1.36458498433770   -3.10290132783659   -0.64150331309491
H        -3.26084591222958   -1.58398248582674   -1.57960703496630
H        -4.35557593838299    0.65779378532808   -1.56961252997837
H        -3.46829585057654    2.40542116696618   -0.02225988352994
H        -1.54505061686702    1.86717359864694    1.42684106005046
H         0.14709734126733   -3.97234944759324    2.94802523475045
H         1.63290608833630   -5.93761792510094    3.03429090629598
H         3.28703386267926   -7.37901196291095    1.97110510552377
Cl        1.37851455916173   -0.20107736047858   -0.36237545548312
