80
 energy: -117.222171135544 gnorm: 0.000557441962 xtb: 6.4.1 (afa7bdf)
Ir       -0.00519799709840   -0.45676843607807    1.82609685407398
C        -2.20793240906802    1.25480821716405    3.81049950853873
C        -0.84841294808831    0.68022231905681    3.61427708327070
C        -0.46009110646938   -0.64858758053921    3.99600106649540
C         0.97319772266217   -0.73659352713889    3.89902208203696
C         1.78496490562860   -1.79408844940969    4.56444246898506
C         1.44871871847189    0.46125142730994    3.29718048001396
C         0.30913997764330    1.35634280193892    3.13264563114895
C         0.40726497356069    2.79845629471003    2.85747405464829
C        -0.04151384070501    3.70033138754262    3.82227742183757
C         0.08198567419401    5.06020435786901    3.62224317687023
C         0.65202959375544    5.56297634039631    2.45359385481532
C         0.79233912834094    7.01254236847496    2.25004828333689
C         1.95204817652759    7.53929901324428    1.68450901861717
C         2.09108345568662    8.90325730807113    1.50496809207053
C         1.07184301107943    9.76332185749916    1.88035305578573
C        -0.08741359736711    9.25035718690654    2.43931321296136
C        -0.22548651604361    7.88715254964910    2.62586665696031
C         1.09259157805458    4.65779281379503    1.48956602014298
C         0.97596592457257    3.29616715601178    1.68712953014921
C         2.87728499052475    0.87033095648317    3.16705173860161
C        -1.33209252468123   -1.63169417979012    4.70148920420276
H        -2.36321177780488    1.42584900032605    4.87664284285912
H        -2.98373668742987    0.57072596648507    3.47332220025459
H        -2.31512137372330    2.20015904328390    3.28702600371308
H         1.65580142391113   -1.68443116624177    5.64244830184641
H         2.84144295116959   -1.68695537937528    4.33996253277580
H         1.45124056951788   -2.79376484623448    4.29727116020157
H        -0.45968861536451    3.33265640353966    4.74642235504489
H        -0.24546021862148    5.74299861633247    4.39181535113543
H         2.75899864442947    6.87791917405257    1.40463222004433
H         2.99935471158265    9.29853759833141    1.07339583553803
H         1.18111507917706   10.82864863095197    1.73903692465166
H        -0.88642441264064    9.91686512586947    2.73064927159656
H        -1.13895846707119    7.49587970532334    3.04984742316147
H         1.51734495840588    5.02561899174700    0.56763226387563
H         1.30493221488210    2.61381372692229    0.91782446668472
H         3.49471567866672    0.04907536251077    2.81269589149078
H         2.97715299026705    1.70555279515375    2.47998606821277
H         3.24867239084848    1.18449256645109    4.14372784023702
H        -2.36264730674449   -1.55269883088550    4.36683591307722
H        -0.98304040091993   -2.64840311545374    4.54419960179006
H        -1.30883246485332   -1.42908783573866    5.77288172960853
Cl       -5.60391090370235    3.61766688133175   -0.52990251161193
C        -4.51019847767553    2.33803748429494   -0.13149736926952
C        -3.19823040708332    2.66093179192502    0.26082722385774
C        -2.31822304694919    1.67118991728798    0.59871874292365
C        -2.70116156554689    0.31542472046641    0.54106582600889
N        -1.82368068079956   -0.66283628477222    0.86326227673189
C        -2.15182117375876   -1.94451692404807    0.65078657940797
C        -1.05225428930177   -2.85729795408621    0.77474668987961
N         0.10752149468234   -2.37950988237150    1.07668692739809
C         1.27266808302777   -3.24271994881635    0.92139623001032
C         2.57045212079023   -2.48359685622611    1.22308220577148
C         3.76080590772611   -3.13208600426355    0.51955542913566
C         3.64340965653939   -2.96833582552688   -0.99909147800097
C         2.17287579701458   -2.96779491510656   -1.42851711192083
C         1.34563969196776   -3.84986130427141   -0.50103113609886
C        -3.43587016334525   -2.33324912653446    0.22250709492761
C        -4.37449755857408   -1.37026910196886   -0.02095569021263
C        -4.01937557708250   -0.00767550044762    0.10068263997020
C        -4.91493421102957    1.03008826201813   -0.21584172350786
H        -2.89392083896522    3.69448781163745    0.28757715257981
H        -1.30365252409237    1.91679607398549    0.87081145425890
H        -1.19945278354651   -3.90150631805224    0.52000420109338
H         1.15616992041401   -4.06809414143867    1.63548017798225
H         2.47371887813389   -1.45618532170407    0.86933572409687
H         2.75084997566174   -2.47159263093995    2.29360323882736
H         3.80498786911672   -4.18987757959905    0.78549818488149
H         4.68555681356857   -2.67251163510531    0.86892588934708
H         4.10680863871410   -2.03179630218997   -1.31046411826834
H         4.18138850157452   -3.77843660468458   -1.49428289051870
H         1.77359062069375   -1.95366316931852   -1.40422334250092
H         2.08358019850726   -3.33113442270982   -2.45323325328873
H         1.80697694092965   -4.83568032475657   -0.43884305794006
H         0.34759571340655   -3.97431604087022   -0.91738035720069
H        -3.65390247423278   -3.38099464565941    0.09560383913037
H        -5.37421697149908   -1.62989920075633   -0.33193833546789
H        -5.91324243821860    0.78312682393283   -0.53971691862832
Cl        0.87592148412994    0.33916948284790   -0.24424512713495
