78
 energy: -106.444593864472 gnorm: 0.000416646504 xtb: 6.4.1 (afa7bdf)
Ir       -0.41819703974921   -0.90218934961373    1.54991540742254
C        -2.09122173850715    1.45928870991284    3.57675486732477
C        -0.94180561042125    0.55365985417605    3.28418696988904
C        -0.94065435272245   -0.82847603151976    3.72189000239476
C        -2.05850907702464   -1.48195335626822    4.46041969924782
C         0.39409608142734   -1.32644052119397    3.62551300008349
C         0.88337593178284   -2.56899092363430    4.28673695011126
C         1.17528591666324   -0.33302678270853    2.95200340101594
C         2.65348819703232   -0.38102260278119    2.74258069852188
C         0.35413721051597    0.86617667467586    2.80867489385760
C         0.94934757873642    2.20889306326850    2.48596206606199
C         0.23101857868115    3.02662212012161    1.40816894807000
C         1.00169466048970    4.31792333350592    1.14413567821697
C         1.12533377908224    5.14187240448593    2.42352903812448
C         1.81465019778027    4.32903345669175    3.51612597585878
C         1.05666114891439    3.03169025156178    3.78221274010145
H        -3.02950138096611    1.03237494777788    3.22849880700639
H        -1.96869194516237    2.43961749869559    3.13208347125760
H        -2.16340230861736    1.57807541016634    4.65888225648204
H        -1.96903310541552   -2.56396809768211    4.43103815439608
H        -2.03066383395004   -1.16683927932997    5.50422943711610
H        -3.02233038201515   -1.19443058920704    4.04925738313766
H         0.22698455013046   -3.41585503291963    4.10032955013124
H         1.89624690164996   -2.81730390984025    3.98425399984877
H         0.89341306553230   -2.39298304326401    5.36354294615583
H         3.01519863966257   -1.40486172963635    2.73527229970146
H         2.92572912560023    0.08293009443287    1.79739915290293
H         3.15795077052146    0.15698605327994    3.54539668401716
H         1.96523496949337    2.03627280418734    2.11913478914913
H        -0.77908206383927    3.28732890203517    1.72481369742869
H         0.17095593935789    2.44094625069777    0.48992130061108
H         0.49030259637648    4.89983255052447    0.37471912241304
H         1.99915407270672    4.07937725255174    0.76818653354276
H         0.13062075884930    5.44011572176618    2.76412037868458
H         1.69349818625918    6.05307348676731    2.22522937903501
H         1.87118225243374    4.91454787404585    4.43606911030041
H         2.83632332983908    4.09995577731812    3.20454592728849
H         0.05907316104204    3.26616464287128    4.15438784735599
H         1.57368568389148    2.45066957847352    4.54817570060542
C         6.07256118498602   -1.50922930667172   -1.52328361443430
C         4.93564424768474   -1.88877316212891   -0.58061275151897
C         4.45492406154171   -3.31793487999636   -0.82800270571127
C         3.37765112138112   -3.77625751825485    0.15660887746692
C         2.05735553488597   -3.03451232579093   -0.03759830464006
C         0.98469310277732   -3.55793806834979    0.92778879133302
N        -0.21983082969900   -2.77249194911790    0.82768941413370
C        -1.23592397085773   -3.26494125516615    0.20531652237359
C        -2.37696551245548   -2.42162950137646    0.00398749070350
C        -3.54248637026406   -2.85237435742494   -0.66119832027675
C        -4.56802653322039   -1.97003191557024   -0.84706044523676
C        -4.40039019120398   -0.62451441241662   -0.44877624148332
C        -5.38300269361068    0.35489128125739   -0.68358949272636
C        -5.14620908822579    1.66277252077264   -0.34511563056072
Cl       -6.34959745033335    2.87302253910958   -0.63798739698951
C        -3.91625565203973    2.04720518114269    0.21814648452382
C        -2.96063887614304    1.10661948153815    0.48349886830319
C        -3.17931934354691   -0.25262139329424    0.18674548124723
N        -2.23025293725835   -1.17470780374574    0.47133240771515
H         6.92614116310497   -2.16973591482311   -1.38328440411158
H         5.75088866888816   -1.58451346257773   -2.56010093786657
H         6.39771846396328   -0.48728978415468   -1.34075090012460
H         4.11070249965043   -1.19029975951079   -0.72615460350853
H         5.28164429681765   -1.79786116319904    0.45148100982498
H         4.07297539169243   -3.39703845270368   -1.84803471516961
H         5.31095050815085   -3.99207871685081   -0.74607540243233
H         3.74115639639771   -3.62487247570447    1.17494317862062
H         3.21259707759812   -4.84716441383511    0.01924237416959
H         2.19526468338410   -1.96862468532124    0.13417003068776
H         1.71005414407440   -3.16245601459291   -1.06348870413514
H         1.36916731933386   -3.49022692569334    1.94493527704659
H         0.76791475388016   -4.60643514718105    0.70076674643550
H        -1.22514967740137   -4.27224495329740   -0.19709178988577
H        -3.60723476486009   -3.87351549905570   -0.99944548211233
H        -5.49068391749208   -2.27330395546890   -1.31665980430869
H        -6.31218848884809    0.06635592969591   -1.14824275292590
H        -3.73851199085043    3.08886947663265    0.42981097600354
H        -1.99720532222982    1.39212460486728    0.87306608228071
Cl        0.41782654421848   -0.05350930608998   -0.50924087757665
