61
 energy: -98.790378289200 gnorm: 0.000361323576 xtb: 6.4.1 (afa7bdf)
Ir       -0.88247948484989   -1.20679285174625    1.31552485701984
C        -2.12199800678484    1.26570693942167    3.35578581220492
C        -0.98615326996467    0.41948297454657    2.89202475964709
C        -0.60280771445651   -0.84074015442473    3.49122615617415
C        -1.26357123897129   -1.45839418182374    4.67557353354567
C         0.68131593721727   -1.21200024399715    2.95797296023596
C         1.53987720874600   -2.31263159495876    3.47477884360758
C         1.02751290120376   -0.26335061478994    1.95249642372877
C         2.33226836699651   -0.14027173308341    1.24278359958718
C        -0.00062720244290    0.76676275811030    1.93325457732002
C         0.11637700333389    2.03947242856958    1.16947490969560
H        -1.79957920095294    1.82775809791789    4.23324764170857
H        -2.97728490315592    0.66057173701165    3.64535394561918
H        -2.42511110533217    1.98068486676591    2.59569705861955
H        -2.34263548672941   -1.33962893152618    4.63241698188386
H        -1.02658966311129   -2.51537418995372    4.75265347161607
H        -0.90716014163487   -0.96378122143027    5.58004928465981
H         0.94645685965099   -3.16728644737986    3.78733935923653
H         2.25907328908124   -2.63870714203711    2.72918672474903
H         2.08961488989335   -1.94541891942381    4.34220023106327
H         2.18056921702825    0.16507382659437    0.21001101774777
H         2.88610880216848   -1.07395925383315    1.25769712085852
H         2.93475708641994    0.62544528738986    1.73204622533368
H        -0.77802409159907    2.64720177374842    1.26338795535952
H         0.29235013143371    1.83764062293738    0.11454821703079
H         0.96739743136111    2.60610964462557    1.54717745077651
C        -8.25726199922295   -4.18875231554361   -1.25525421729150
O        -6.96355420549829   -3.77147786823941   -0.81775453282618
C        -6.82999245859364   -2.51102961925377   -0.42769037497653
O        -7.71962743041422   -1.69397118359457   -0.41367707691138
C        -5.43250192242669   -2.20850319933027    0.01731289392934
C        -5.12686021824430   -0.91913567422485    0.46237463892958
C        -3.84234745716896   -0.63839789107517    0.88501169110995
N        -2.87506296618908   -1.55306020821136    0.89780597643952
C        -3.15318962949327   -2.80258312332689    0.44540862989082
C        -2.01794297281939   -3.67598119409350    0.43098472981511
N        -0.88599697636987   -3.16331152574429    0.79728746875051
C         0.27541636673785   -3.95066583153889    0.78162082495097
C         1.41434855262903   -3.45187107779324    0.14876858181579
C         2.53721999909182   -4.25236418823939    0.13121811402442
F         3.64734527204795   -3.79288313517363   -0.48365059934015
C         2.59120496305999   -5.50015008878489    0.72852413870741
C         1.45039032151237   -5.98269980783507    1.36978911993545
O         1.36257824707148   -7.16908226843368    1.99401552098244
C         2.49442337137765   -8.02224319944842    2.01869666523635
C         0.28997788906734   -5.20051614304590    1.38352214223769
C        -4.42570106362093   -3.16146771606093    0.00059046403555
H        -8.46076788394615   -3.78952186446947   -2.25008247422784
H        -8.23066769001799   -5.27449801549684   -1.27796220091785
H        -9.02248864750399   -3.83027743745584   -0.56526176254053
H        -5.89533257155485   -0.16263401290527    0.47328944235337
H        -3.58004716702565    0.35211460956770    1.22402739912520
H        -2.09689880353034   -4.69798687289015    0.07976778572958
H         1.39889269337852   -2.49651201087113   -0.34837007562162
H         3.50904524410889   -6.06108809104978    0.67820464799191
H         2.17690218189322   -8.90799380263510    2.56442754120470
H         2.79829642883801   -8.30697412306193    1.00835004726105
H         3.33158814733991   -7.55198450834371    2.54056038176104
H        -0.57844182064824   -5.58306940414974    1.89428231007637
H        -4.61516808382720   -4.16108420358025   -0.35460391040797
Cl       -0.69867332455425   -0.69705648091680   -1.01316005023170
