70
 energy: -106.355660230250 gnorm: 0.000474484563 xtb: 6.4.1 (afa7bdf)
Ir       -1.06568984271372   -0.08566509987576    1.44853698568050
C        -1.64019067349315    2.79960421901822    3.08784171099172
C        -0.91611002753367    1.49438644021406    3.02565614444065
C        -1.33665357408441    0.29949598954648    3.62254799797652
C        -2.55911648272300    0.07514762518086    4.44499684892522
C        -0.29464796585437   -0.70488495067530    3.42470381090870
C        -0.29427418224016   -2.04944714649536    4.06606403514874
C         0.74271092009915   -0.11289731375777    2.68938699583697
C         2.06782210484654   -0.72874163736666    2.37712647331968
C         0.55845657708489    1.39636555901047    2.67700497945624
C         1.58717716595670    2.15263335773283    3.53207301411667
C         1.56901769121533    3.67321419105268    3.36547427779494
C         2.70903729319110    4.28960193303092    4.17432981034276
C         2.56692297359588    3.93624736096974    5.65219151487547
C         2.53689152346946    2.42182698758172    5.83640202072027
C         1.41243983728221    1.79799661935220    5.01267462147507
H        -2.71639340722498    2.65241468989487    3.06371552081323
H        -1.35065562400053    3.44130587992822    2.25938734746368
H        -1.40512059220945    3.31340193056740    4.02046805311178
H        -3.02849752798977   -0.87373725080976    4.20046669830866
H        -2.27121796631942    0.04463912554918    5.49574208449428
H        -3.28117671191938    0.87407282963800    4.31251379259004
H        -0.09388222499498   -1.92397546222056    5.13047144082104
H        -1.26042284746872   -2.53650874905381    3.96828872229151
H         0.47912781833864   -2.68382800492340    3.64550082974590
H         1.95769668288730   -1.77338325446868    2.09942404990534
H         2.55025700859143   -0.20003342890602    1.55804780336036
H         2.71985059876515   -0.67715862821919    3.24983253059945
H         2.57318760398963    1.80129504428245    3.20721726265804
H         0.62763381112318    4.08573224094513    3.72451276442538
H         1.68236971683997    3.94158529482269    2.31442228136198
H         2.70025910059338    5.37402044146853    4.04895848407631
H         3.66755188981694    3.92069368323919    3.80170225791719
H         1.64359124158409    4.37040898601279    6.04269554748003
H         3.39759300795095    4.36231140997792    6.21783432301691
H         2.39632326543267    2.17772282508940    6.89095988451026
H         3.49564002293979    2.00219506289010    5.52327090272643
H         0.45289401377253    2.17554488515108    5.36931134335036
H         1.42053863926747    0.71535279820330    5.14582711558987
C        -7.01029098387558    2.87975278891482   -3.65963885122894
O        -6.12490809683238    2.40784919484868   -2.64594143579665
C        -5.18994282168956    1.53558957637460   -3.01070137065163
O        -5.04797384250761    1.11555159350329   -4.13671899718749
C        -4.32531884446012    1.12723442632235   -1.86715966402150
C        -4.47743092857307    1.65707735983894   -0.57909360728252
C        -3.61812537695204    1.24499612141632    0.41706698141363
N        -2.64029762562316    0.35428377448719    0.22757607857358
C        -2.50457079543649   -0.18921343161934   -1.02118954323184
C        -1.47284634675448   -1.17059413353175   -1.11587034894186
N        -0.80260408104366   -1.42338577807948   -0.02342981397236
C         0.20597975843042   -2.40239064839300   -0.05947518401099
C         1.24300819539669   -2.33007464837333   -0.98835504375868
C         2.23629502480352   -3.29174754619650   -0.99445593329400
C         2.16604635479284   -4.33018050287825   -0.08151278829671
F         3.13120848261253   -5.27499783148382   -0.08889278791097
C         1.13712804132442   -4.43059347913550    0.84089563511301
C         0.15816210396889   -3.45543627895453    0.85316787699279
C        -3.32793233954527    0.18975177801330   -2.08079352337055
H        -7.33812910019007    2.05227140047828   -4.29087404579632
H        -6.50302263792409    3.62046088417299   -4.28014373575173
H        -7.85161317777232    3.33003416465500   -3.14030668775739
H        -5.25378060110236    2.37416652419136   -0.37346453931470
H        -3.71972229930886    1.63683753315112    1.41712349784531
H        -1.28961872125589   -1.70908408296777   -2.03735178072735
H         1.28328222085117   -1.50703291841631   -1.68449573104702
H         3.05429034391138   -3.24872230957724   -1.69529344931559
H         1.11321891944391   -5.26201167379380    1.52699595741811
H        -0.66650730416251   -3.51350351362913    1.54475931635274
H        -3.19340299336757   -0.23614701331202   -3.06252118426998
Cl        0.72769961578510    1.91882018620916    0.91842742113458
