51
 energy: -81.674885404538 gnorm: 0.000469730196 xtb: 6.4.1 (afa7bdf)
Ir       -0.67113036863402   -0.96291075646541    1.18081132940363
C        -2.06114683826404    1.49805435724464    3.14112652088367
C        -0.92619383562723    0.58900674389663    2.81130516348649
C        -0.71814835071176   -0.72283724046040    3.39260618086992
C        -1.59210611243254   -1.35501599855639    4.42015789580033
C         0.60030265467866   -1.16031395908660    3.03571132875642
C         1.29788136940944   -2.34842499737150    3.59898463634111
C         1.15889388367168   -0.18765953846988    2.14697518312064
C         2.56961760480821   -0.12394231329481    1.66977161140637
C         0.22297045178547    0.92033754123700    2.05257167880524
C         0.53458018089324    2.22135145638342    1.40120733140645
H        -1.79606794987609    2.08064491552822    4.02451370031389
H        -2.96481506637742    0.94009387004566    3.37079224725031
H        -2.26153690853038    2.19652457400337    2.33234161764047
H        -2.64121366821972   -1.14208845056137    4.23501677208355
H        -1.44966891406345   -2.43129335801153    4.45017972475712
H        -1.33393638337301   -0.95232138304815    5.40036307707792
H         0.60820300330473   -3.16931932945401    3.77522635247783
H         2.09313604009644   -2.69066973253448    2.94329361343803
H         1.74044139273466   -2.06918677236997    4.55568095660467
H         2.61825148576406    0.29472075867923    0.66769429499703
H         3.03276034637880   -1.10589366366088    1.66923173747864
H         3.14003709513302    0.52669280846906    2.33351765976181
H        -0.32707012626747    2.88142710003983    1.39456323469625
H         0.86482563734351    2.06873363700913    0.37533309971808
H         1.34487462067254    2.70697159239237    1.94501296114060
F         4.02329193258828   -5.85970672548330    0.65600992327814
C         2.89454992727746   -5.12491515390814    0.61410563433870
C         2.93871102587226   -3.85698093217748    0.05572834926641
C         1.78216062944635   -3.10224262608526    0.02424811856840
C         0.59274936266605   -3.62566096205935    0.53129993570672
N        -0.57577854296686   -2.85010911206371    0.47399821300303
C        -1.64633021154878   -3.34021062384872   -0.07088899911818
C        -2.79827802097508   -2.49428303505417   -0.11025545755173
C        -3.99451279005212   -2.81351834710046   -0.76040173815067
C        -5.02291104930186   -1.89538991198771   -0.77466265528162
C        -4.81768576029260   -0.67133154001382   -0.13818837655935
Br       -6.18722785387193    0.64945181156141   -0.10225342265073
C        -3.60699552658039   -0.41130880257576    0.48916098030993
N        -2.62377458011316   -1.30020417394692    0.51246193698669
C         0.56791233564277   -4.90760315966127    1.08150197322533
C         1.72662697895283   -5.65932129820594    1.13347998691680
H         3.86459547127626   -3.48064328124794   -0.34858766554014
H         1.77413116132497   -2.12098392295048   -0.42327624113604
H        -1.65667710075624   -4.32704938037908   -0.51827375205259
H        -4.09775963667876   -3.76745617871503   -1.25235107018862
H        -5.95830146779576   -2.10860040038517   -1.26698759776656
H        -3.43679819776820    0.53588432503717    0.97846815680938
H        -0.35013301713088   -5.30120249098476    1.48924565599324
H         1.73458995386731   -6.64781284645715    1.56374553322585
Cl       -0.28311826737726   -0.22326409289823   -1.05156233134955
