64
 energy: -116.373067102696 gnorm: 0.000446182423 xtb: 6.4.1 (afa7bdf)
Ir       -0.32539890546208   -1.08407542012803    1.23420214771862
C        -1.64096774389868    0.63926552539270    3.94368274987789
C        -0.46842318021992    0.07845538804874    3.22801952497552
C         0.04713119595481   -1.24527950903413    3.44473321223527
C        -0.48279329345339   -2.21442059333360    4.44342413738713
C         1.30105495355167   -1.35174073626258    2.75098706552810
C         2.32664489508001   -2.40843324112927    2.95422805958884
C         1.51432130382921   -0.13061866617623    2.02777632620404
C         2.78162514341605    0.23717787549540    1.34561442444449
C         0.40694298075847    0.75825028667521    2.32240235709165
C         0.39940082767395    2.19695395004533    2.01072047962707
C         0.31994399300411    3.11930478961493    3.05208926250246
C         0.36673977131389    4.46898219602963    2.75729141777421
F         0.29449557877899    5.35336520076328    3.77184621480646
C         0.48761693726034    4.94707405809579    1.46493086690350
C         0.56355619411113    4.00486275753110    0.45407502076334
F         0.68088312095090    4.43240761797276   -0.81921884529495
C         0.52674947881525    2.64554395636492    0.69833267798335
H        -1.90009656229895    1.62524806068705    3.57287705904399
H        -1.39567372027635    0.71128180349816    5.00414086646018
H        -2.50640736953099   -0.01443739023783    3.85952504149139
H        -0.17517561727820   -3.22918265538113    4.20858416865029
H        -0.08736580102233   -1.95983485705087    5.42751486877341
H        -1.56665040227761   -2.17042622177622    4.49730748882789
H         2.94440196203753   -2.11490274421118    3.80426981503296
H         1.87752777194436   -3.37113212361970    3.17794404509261
H         2.97093806196072   -2.50521671971850    2.08600103792485
H         3.07795396838967   -0.52345456339077    0.62742892838347
H         2.68778988775631    1.18762884164098    0.83031198174953
H         3.57060045428637    0.31730429903049    2.09391408406705
H         0.24932679771922    2.80407622208545    4.07979950137196
H         0.52029033262699    6.00286187807778    1.25432087326495
H         0.56623856503341    1.95059173458417   -0.12581490166534
C         5.09331564741045   -6.38875477239739    1.88244933206267
S         3.96998166158385   -6.92218774313442    0.56744463529335
O         3.42916968417300   -8.21703616734018    0.90333870175521
O         4.63599203636820   -6.78682425832434   -0.70515525679067
C         2.62240267493459   -5.72187501703546    0.62360662529366
C         1.47503015086743   -6.02329945924646    1.33461664505564
C         0.42420113217829   -5.12297384376847    1.34841083386893
C         0.54637152477567   -3.91421348463509    0.66105595242065
N        -0.51983300176725   -2.99810528271497    0.63224391781474
C        -1.67956353251330   -3.40834179286014    0.22743545481792
C        -2.72003802983568   -2.43522877587309    0.11840093133765
N        -2.39296309593462   -1.18580604538518    0.53259223868617
C        -3.26718678135412   -0.20640113685698    0.31773423809854
Br       -2.76924297368712    1.54667685865093    0.77725640535229
C        -4.52444124284955   -0.41023520151612   -0.24130314993790
C        -4.89505809154517   -1.68728518601233   -0.63069765183571
C        -3.96901991534265   -2.69990764164888   -0.45746113719593
F        -4.24379937797241   -3.94479224846716   -0.84647311284196
C         1.71602435774006   -3.60956536302622   -0.03639547752045
C         2.75064774493846   -4.52761382256679   -0.06345717540149
H         5.92082954002099   -7.08785416092226    1.90658740798917
H         4.55137242159959   -6.41146820706368    2.81834030250033
H         5.44540199870917   -5.39471330350691    1.64160773551251
H         1.41181530729582   -6.97108359244488    1.84487519890804
H        -0.47971422175211   -5.34308514375789    1.89497622961404
H        -1.84951168641773   -4.42997852610669   -0.09419667571659
H        -5.19571868373894    0.42430293459069   -0.36599394164501
H        -5.85958911715960   -1.89150731624101   -1.06841838076983
H         1.77695363384405   -2.67951128923097   -0.58075048946541
H         3.64932811498501   -4.34323723316609   -0.62966752767305
Cl        0.07145954034987   -0.48938177948859   -1.03441776818619
