77
 energy: -128.590756317462 gnorm: 0.000627945400 xtb: 6.4.1 (afa7bdf)
Ir       -0.77805353275833   -0.81689085254393    1.46530611188586
C        -2.19827875092309    1.01805076049072    3.99015139520939
C        -0.99017673480872    0.36958362502877    3.41005820554374
C        -0.57738872115716   -0.97764161244514    3.68234332925007
C        -1.25594289187080   -1.90386160301170    4.63262681734820
C         0.73661330893140   -1.16133392127091    3.12138518429993
C         1.65762826278602   -2.29131562287323    3.42002829163529
C         1.08066829677932    0.01525230114942    2.40344960594571
C         2.41811388281765    0.30581652644245    1.81789540889035
C         0.00047786709598    0.97543406580436    2.57808685323675
C         0.10749011996800    2.40765792732249    2.25256626846514
C         0.01440636136534    3.34460208065147    3.28067787855347
C         0.16592489240548    4.68537278897855    2.98253655668647
F         0.08040926737507    5.58430022413472    3.98442526080790
C         0.39988012967721    5.14259214625879    1.69779715904065
C         0.48312485604114    4.18779814041818    0.69904895288381
F         0.70348776578798    4.59773884410338   -0.56631660310558
C         0.34428170418051    2.83539477542649    0.94727533774423
H        -2.38620015026124    1.98479878719349    3.53328457424150
H        -2.04137517450344    1.15830533707481    5.06012122375092
H        -3.07869941578938    0.39089028820039    3.86935968822685
H        -0.97906750055667   -2.93602377384118    4.43786281957733
H        -0.95083526242730   -1.65921134263235    5.65070881911181
H        -2.33620130888556   -1.80465720923575    4.57197126130432
H         2.18858498374073   -2.06548469723926    4.34596942531820
H         1.12225685783272   -3.22610604769697    3.56087050394750
H         2.39531451364500   -2.42158591723712    2.63361003945452
H         2.77418105751146   -0.52917643619349    1.21917018652609
H         2.38977306597317    1.19566220466192    1.19665271636839
H         3.13189920089255    0.46714432262501    2.62640927501769
H        -0.14455432575426    3.04211128268382    4.30249365044430
H         0.51524234840265    6.19230038481722    1.48539531611794
H         0.39620523874975    2.13074843051470    0.13096548312976
C        -7.05012045618990    5.62487976086456    0.13052293853027
C        -5.82005663228486    4.75811218227857    0.34809041588725
O        -6.21332910064791    3.40027320227283    0.16819643505932
C        -5.33008522525751    2.41027260263690    0.31719788914328
C        -3.96695791704033    2.58931028555621    0.65717570651072
C        -3.13664646539458    1.51570421207675    0.81192729825886
C        -3.59575043030087    0.19758271233197    0.62545820586149
N        -2.76511282950898   -0.85619759343536    0.78402129777592
C        -3.19725887442284   -2.08595347529574    0.45317667700199
C        -2.19311014740562   -3.09833506364802    0.50187676174744
N        -1.00381523722994   -2.73119577011163    0.86402776610390
C         0.04444723283762   -3.66155257156388    0.89341040703497
C         1.25542685973811   -3.34463936137662    0.27662928513069
C         2.29314204539481   -4.25891910848363    0.29967591107564
C         2.12523395676700   -5.46580045163373    0.95407767899492
S         3.47579011146874   -6.65815093574729    0.99050355946543
C         3.04203162075893   -7.84883989870607   -0.30119757598559
O         4.69652248480533   -5.98051660899434    0.62391702966371
O         3.45096336260187   -7.32540086823367    2.27129905341842
C         0.93416952454712   -5.78499889945875    1.58053995486166
C        -0.11614738308007   -4.88575084959046    1.54678769914381
C        -4.52468776641814   -2.33976740211534    0.04730499333733
C        -5.40810058712826   -1.30457719661202   -0.03157809262909
C        -4.96047455966316    0.01205522295703    0.23258807776326
C        -5.79783213551931    1.12100244806412    0.10573517063753
H        -7.82339529385562    5.36558716515316    0.84832546376418
H        -6.78567612005477    6.67067472041055    0.25510097730081
H        -7.44136392632940    5.47483049485055   -0.87170716601841
H        -5.43100309573056    4.90075955049635    1.36339955312863
H        -5.03985678523731    5.01631252777116   -0.37835484567003
H        -3.56851305417165    3.58203490548106    0.78911358528742
H        -2.09365511609533    1.67306368797300    1.03339842180539
H        -2.40347759725399   -4.11254997600747    0.18285362468003
H         1.35413424914171   -2.39865007581196   -0.23386828830830
H         3.24183562136025   -4.04875115692058   -0.16796331169496
H         3.83474046322293   -8.58556436149662   -0.34592403348172
H         2.10486886785057   -8.31591236236794   -0.02991009599188
H         2.96692072900994   -7.31351388351178   -1.23800716378659
H         0.85046421851440   -6.72438206162106    2.10333050204294
H        -1.04671276457707   -5.11263018085618    2.04401694177540
H        -4.81331384942371   -3.35097246762680   -0.18711183281931
H        -6.43628705868538   -1.46399936825848   -0.31587864342506
H        -6.82841461582184    0.98463159532560   -0.17957944017786
Cl       -0.21358653555919   -0.24605353477944   -0.77247778906921
