62
 energy: -113.979759958412 gnorm: 0.000289685690 xtb: 6.4.1 (afa7bdf)
Ir       -0.26975508917771   -0.87974751998541    1.33569506274795
C        -1.82588789443967    0.76998334639345    3.85583635820748
C        -0.55874484411414    0.26459158986445    3.26127349585938
C         0.03094540917177   -1.01364056685002    3.53853039817763
C        -0.48710853327192   -2.00912162747695    4.51647089047356
C         1.33944665567698   -1.04160178918807    2.93135014560881
C         2.39523997357678   -2.05174507404429    3.20952741946655
C         1.51659046601444    0.16194759952314    2.19926603857862
C         2.78467037596009    0.60260704162812    1.56009034595559
C         0.32107480437476    0.97446099597072    2.38291597477296
C         0.21894824227267    2.39619117691920    2.01540639325542
C         0.01583039318401    3.34351015371193    3.01733560179614
C        -0.02867227717928    4.68226641049063    2.67641125646415
F        -0.22190205957985    5.59075229957197    3.65348027575774
C         0.11675672693390    5.12631124041711    1.37415525344025
C         0.31565346353138    4.16088863722837    0.40264688244459
F         0.45979664785956    4.55406394446709   -0.87879612975373
C         0.37055541635231    2.81125491430420    0.69448584392637
H        -2.15362810779764    1.68467205916942    3.37023272386942
H        -1.65717245585882    0.98170911639724    4.91224422190741
H        -2.61588360369030    0.02461925856431    3.79739295104982
H        -0.14760713688844   -3.01229995087594    4.27305062540647
H        -0.11034129830538   -1.76008906975081    5.50921954533466
H        -1.57236272547143   -1.99736033209647    4.55502998415845
H         2.88337933178482   -1.78666341042720    4.14844437894784
H         1.97970677076696   -3.04989887960113    3.31979249742147
H         3.14849050663873   -2.05961170069035    2.42827555864707
H         3.18422394873745   -0.17194507872332    0.90861831207214
H         2.63807665654932    1.50971392615886    0.98195312430049
H         3.52168292445395    0.80164476690445    2.33867652852857
H        -0.07879702849407    3.05690397698783    4.05162747783205
H         0.07960054460163    6.17432315804575    1.12835413351672
H         0.50986527063159    2.09818868128480   -0.10216302798643
O         2.31614706012129   -2.35991490566091   -0.19373530600629
C         1.92278238542343   -3.49407408973523    0.37335885210825
C         2.89892027114360   -4.47800778010000    0.57688294951504
C         2.59757493139960   -5.69157565012945    1.15049822160447
C         1.28542664762953   -5.95771702933952    1.53743407919599
C         0.91655345448336   -7.25720129173081    2.19039448685961
F        -0.22389806112441   -7.77538113610273    1.69386749187034
F         1.85436789253913   -8.20393871271465    2.06587823429587
F         0.69818436145333   -7.11337628877360    3.51743087512058
C         0.29690653077111   -5.00627047372790    1.35326430497285
C         0.59958143091717   -3.77014013095055    0.78293423518793
N        -0.42000306649886   -2.81407054321753    0.65817259291173
C        -1.56096967891323   -3.15415332543887    0.14949568884267
C        -2.58739816546753   -2.15310735093109    0.11405393795115
C        -3.84087374780633   -2.33224005792397   -0.47050596803999
C        -4.73575480000185   -1.27667338445645   -0.47360703383028
C        -4.34813602310740   -0.07052617716957    0.09825742531109
C        -3.08641812765683    0.03748153538981    0.66083374909791
N        -2.22806346407139   -0.97657041329265    0.68325679591390
H         1.59125635497110   -1.77252958697908   -0.51110514381606
H         3.90446989696488   -4.25461599193684    0.26010410296649
H         3.36609139865887   -6.43355674202016    1.29532560491343
H        -0.71177096246587   -5.20635595420484    1.68235430179327
H        -1.72883583847951   -4.14123312091977   -0.26610940799785
H        -4.08973992259157   -3.28202865102743   -0.91558881736850
H        -5.71292859369218   -1.38663922432063   -0.91698052270687
H        -5.01139846712604    0.77884764146437    0.11144555975203
H        -2.75651828974706    0.96523696385471    1.10374596269558
Cl        0.16195111757177   -0.34697642226226   -0.97516479539310
