77
 energy: -131.326223069677 gnorm: 0.000540803721 xtb: 6.4.1 (afa7bdf)
Ir       -0.56546686978308   -0.27514442233606    1.69038813361977
C        -2.65735251540668    1.47765031995836    4.06495595207233
C        -1.48404385109558    0.66112359296251    3.66278604336050
C        -1.37605049101770   -0.76878790089595    3.81806694716203
C         0.00920036506919   -1.12176110311300    3.71159913642445
C         0.60304622199744   -2.41639744157363    4.13586635587461
C         0.74819946858702    0.06319458499214    3.38702599587303
C        -0.18858253568836    1.17507512195031    3.36651943846360
C         0.16152618016456    2.59484360599454    3.26802206720142
C         1.15887761294798    3.12761716599209    4.08385925083384
C         1.47346978194414    4.46965904165779    4.01735541830799
C         0.81814018213877    5.31623119081583    3.12469006340049
C         1.16616598911169    6.74223865321493    3.04828251541275
C         1.26568513562439    7.38351727691727    1.81508137205764
C         1.59952915116440    8.72342364730603    1.74361057981763
C         1.83091951052930    9.44657250908641    2.90256810072933
C         1.72995980971386    8.82016504938927    4.13425425114883
C         1.40440969461183    7.47829725808208    4.20760878633773
C        -0.17350054662562    4.77758309119740    2.30524258633190
C        -0.50244379102483    3.44037976955466    2.38002175676644
C         2.23090827878056    0.15429722687245    3.32947164707398
C        -2.43438734957033   -1.66999813472854    4.35406922304281
H        -2.59805232384209    1.61881860110754    5.14638741629090
H        -3.59873818392338    0.98547171093623    3.84780612735395
H        -2.64318629017826    2.45865026826826    3.60093457223920
H         0.79380626621028   -2.35709397343706    5.20876646153843
H         1.55130368363219   -2.60542811589690    3.64106678166177
H        -0.07140128587641   -3.24937290138349    3.96479132800274
H         1.67089620133484    2.49502789168932    4.79183424707898
H         2.25330261798750    4.86557155952665    4.65048690429444
H         1.10236524347926    6.82304862792471    0.90602714822110
H         1.68107188989428    9.20619353029111    0.78046150013282
H         2.08758550012673   10.49414369242025    2.84579823956174
H         1.90540908976285    9.38109851263231    5.04072339112029
H         1.31149371438900    7.00189454007115    5.17270848398631
H        -0.69980656093417    5.42016777880722    1.61546585784478
H        -1.26038188450510    3.03899996786124    1.72251187253126
H         2.65238087695105   -0.69062322222744    2.78790146208431
H         2.54327716042736    1.07342212130926    2.84199515654645
H         2.63601106043408    0.13654744904211    4.34178474502141
H        -3.43018617344484   -1.29198463946839    4.14766883637687
H        -2.33877206262809   -2.67651503404756    3.95591502582230
H        -2.31703186760524   -1.73114307914876    5.43700767922677
C        -4.39138222354419   -0.15978459471723    1.47549513946883
S        -3.79069103327329    1.49467269727325    0.97909649418995
C        -2.71482741814114    0.98932582045965   -0.31132109279476
N        -1.84317526011093    0.00468601757757   -0.08141615219044
C        -1.19750292390822   -0.54339667861482   -1.14914146947728
C        -0.29320240021263   -1.59557596970486   -0.81225778940966
N        -0.06636454679065   -1.80892413277843    0.44862032069237
C         0.87361147024343   -2.80121261400574    0.80785544064219
C         2.22407421724789   -2.58602659178707    0.56171146308954
C         3.15350358341178   -3.54287454887055    0.93949646229237
C         4.60667284073952   -3.30434217602950    0.65320480202023
F         4.95440524275897   -3.69339140099718   -0.59340907795854
F         5.42281538465384   -3.96523363052480    1.48909235114206
F         4.94580736188527   -2.00545127980592    0.74061324614694
C         2.73947185799967   -4.72999084554326    1.54000373803831
C         1.39808854575958   -4.94919715828478    1.76952260731273
C         0.44248285326142   -3.99690018881495    1.40962712575313
O        -0.84541072433994   -4.26232514212296    1.64972745709783
C        -1.36378960826047   -0.07188374273782   -2.45167979267463
C        -2.14780500018264    1.04345272657112   -2.66357401253695
C        -2.84396392000962    1.58299024335276   -1.57891020644183
C        -3.71703312947046    2.67995696792267   -1.76492044007447
N        -4.41716537948141    3.57037354050835   -1.93985323677124
H        -3.56550031722842   -0.76583175953614    1.83226485692459
H        -5.12078314514786    0.01451534398326    2.25924321180785
H        -4.87914089972560   -0.61977938632333    0.62243916314494
H         0.19338034969571   -2.18117008786078   -1.58323711964790
H         2.53301710180358   -1.65850632576813    0.10389201236785
H         3.46845299320403   -5.47152473649404    1.82501348648093
H         1.05909508785307   -5.86258968208993    2.22973983461935
H        -1.43579292040409   -3.59061987442181    1.27625857299966
H        -0.84195451323586   -0.54965005692348   -3.26421468451374
H        -2.25571820217235    1.48015917274056   -3.64425050802251
Cl        0.87235857133232    1.03307868484102    0.31657093798614
