72
 energy: -125.460804958511 gnorm: 0.000808173890 xtb: 6.4.1 (afa7bdf)
Ir       -0.59209195978921   -1.09496125476829    1.45126870033454
C        -1.96815292328405    0.63232760237203    4.04905355195045
C        -0.75356773713674    0.04892872104752    3.41682214121452
C        -0.27250634995240   -1.28295821313844    3.65208025286021
C        -0.85806867910692   -2.24924536478274    4.62383247696744
C         1.01364567378744   -1.40826453138969    3.01412910782473
C         1.99410572131172   -2.50662751347511    3.23336213919621
C         1.28576218379646   -0.19758816248965    2.31833445648696
C         2.58244092421629    0.14647517014144    1.67366299145691
C         0.17950725434991    0.71212001471873    2.55716781492348
C         0.21429272354222    2.14813835116924    2.23970318884082
C         0.03512451777182    3.08355248256855    3.25772276377027
C         0.11744936709784    4.42918590552138    2.95394113004548
F        -0.05336712434295    5.32643634094672    3.94621865999809
C         0.36755439038798    4.89306936487434    1.67469937778109
C         0.54235794551924    3.93979593568902    0.68607965698428
F         0.78553333591964    4.35464050169013   -0.57305330733170
C         0.47363557622536    2.58340984810719    0.93993645832023
H        -2.24338110081684    1.57484729439278    3.58597665270444
H        -1.76589616262127    0.80479841268637    5.10679901164124
H        -2.81118514624363   -0.05201377717699    3.98651797814208
H        -0.57255250905142   -3.26912870287811    4.38269658157630
H        -0.48275840392991   -2.02015867385648    5.62188376599015
H        -1.94143022785552   -2.17522409201688    4.64693147043382
H         2.59319518845035   -2.26247052082661    4.11191510511809
H         1.50043653034089   -3.45692579908081    3.41401725993916
H         2.66389201984640   -2.60749938658061    2.38424971410748
H         2.73567149720033   -0.42945056691513    0.76272019295563
H         2.61759861765329    1.20142401795283    1.41726325321136
H         3.40006794726177   -0.08289478181721    2.35556155826390
H        -0.13631907702565    2.78074115290943    4.27709816304318
H         0.42746008694308    5.94660828289153    1.45865575915387
H         0.59308525870288    1.87889913282420    0.13098918059384
C         3.17217247755484   -8.14917867753886    1.45990206978565
C         3.29833274087706   -6.81738313317324    0.80395939548184
C         4.42233289018074   -6.44806737565396    0.14584255654443
C         4.57695578631434   -5.16020896719251   -0.49571555857129
O         5.56172395642524   -4.78830663384302   -1.09509101197888
O         3.52217279070207   -4.29245911871569   -0.40713695615727
C         2.37859812417383   -4.62718021989100    0.23100380792976
C         1.36777289585777   -3.66964868172368    0.25034931119171
C         0.15981777696532   -3.95837276781995    0.86782240487424
N        -0.86387481734447   -3.00128599902720    0.85800168067308
C        -2.06296997953313   -3.34886111089043    0.50855299474245
C        -3.05529099548754   -2.32129537151244    0.47385847289620
C        -4.38813115649302   -2.56013514707044    0.08310507251249
C        -5.26314533587568   -1.51363590767946    0.02445195637439
C        -4.79608747705666   -0.20724852479052    0.29331635239007
C        -5.63371908758162    0.91758422288625    0.18507598553284
C        -5.13308945237745    2.17624243354156    0.40414733074587
Cl       -6.15310838477123    3.56382172316283    0.26105742775823
C        -3.77532957484939    2.35721541783681    0.72672578525517
C        -2.94939397484779    1.27649558699681    0.85970879093241
C        -3.42849146358591   -0.03442064083919    0.66629291993559
N        -2.60452119665056   -1.09983654369393    0.80763025807948
C        -0.03103774886338   -5.19889908276789    1.49212489893998
C         0.97895716532569   -6.13123292787681    1.49077278645440
C         2.20247648554579   -5.87459086874664    0.85671415460343
H         2.33778759558963   -8.70340555742341    1.03296764553766
H         4.08100308966051   -8.72713554597230    1.32254707154541
H         2.99128097465091   -8.02893402610740    2.52694671110829
H         5.27436940152636   -7.10387557145202    0.06208267703563
H         1.51652297597406   -2.72692204777980   -0.25201072408769
H        -2.29279975740483   -4.35883236548918    0.18966168194874
H        -4.69190992304847   -3.56609908017495   -0.15541120156577
H        -6.29726726223055   -1.66152448382614   -0.24479198173084
H        -6.66793071455118    0.77738247837305   -0.08575323476764
H        -3.39321171888763    3.35595676825983    0.86218832712841
H        -1.90207929955941    1.42036100011393    1.06679033304306
H        -0.96315674988889   -5.40672601777615    1.99343926565198
H         0.82568790205847   -7.07857282580774    1.98033447944614
Cl       -0.05698231764673   -0.52930660025635   -0.79629414574589
