60
 energy: -90.454423048327 gnorm: 0.000406512222 xtb: 6.4.1 (afa7bdf)
Ir       -0.63686878861783   -0.84490586270785    1.82285006046835
C        -1.09852310263712    1.68926553424507    5.08432848911958
C        -0.45368362453398    0.43358170351115    4.64188092068636
C        -1.06014883093459   -0.62551246955575    3.91333189948024
C        -2.53256063780209   -0.96314988131712    3.90445617971743
C        -0.01308978837820   -1.64085114181106    3.67540691757804
C        -0.30231329307988   -3.12212084521249    3.68411453794543
C         1.19703695366746   -1.10691518228829    4.28125233014846
C         2.52369871537779   -1.76190816340624    4.23615904624489
C         0.91074225926560    0.12159710405831    4.86116441914862
C         1.88377865209819    1.02289356728952    5.53591604921774
H        -1.12085520761380    1.72585341015136    6.17410623116717
H        -2.11438651183330    1.77844338271656    4.71272127368403
H        -0.51770159950932    2.54574526839373    4.74472354550903
H        -3.13943442263472   -0.07386164150181    4.05210093028755
H        -2.83593127860084   -1.44377061460674    2.96194684901138
H        -2.75514445155891   -1.66711200076796    4.70747836462840
H        -1.19818308962424   -3.36599832349360    3.11205842484354
H         0.54020298779948   -3.67985753504798    3.28339098467716
H        -0.46884592823416   -3.45053918872665    4.71093695816224
H         3.29250714862999   -1.03893631601866    3.97209383652654
H         2.53480924273755   -2.57162855423388    3.51350167692214
H         2.77249154767522   -2.16489931593813    5.21897825456868
H         1.41124955182239    1.55378106213681    6.35856537650692
H         2.25707224591024    1.76253083172052    4.82682925990219
H         2.73039297464316    0.46059684629488    5.91827486635108
C        -2.45400968018877    3.92150455366994   -4.80310036418402
O        -2.15404073422380    3.00076779262434   -3.75468949467698
C        -2.81159387842877    3.15507542597658   -2.61151534454447
O        -3.64176247139952    4.00995573540089   -2.40916271165351
C        -2.40690125010469    2.14364420631420   -1.58693607361392
C        -2.99190852839100    2.19490632662577   -0.32016657799793
C        -2.60845887186429    1.26634471197901    0.63088366460941
N        -1.71007353342701    0.32252462266141    0.38634788466782
C        -1.13733401577682    0.26048926911567   -0.83627382228333
C        -0.18953110580630   -0.81030970720335   -0.98661522279656
N         0.01541707699577   -1.57343561295839    0.03558418409173
C         0.93987263983786   -2.61709476590119   -0.02222980992018
C         0.57991669637800   -3.87886492148942    0.45151441488199
C         1.48144960017695   -4.92252380908993    0.39094245691227
C         2.76232076899371   -4.73577624726455   -0.12125148499342
C         3.74586859989053   -5.85889810823351   -0.17852980130924
C         3.11699712469238   -3.46638956280279   -0.57678183978707
C         2.22186536422369   -2.41859149435147   -0.54064089639647
C        -1.46546540238710    1.15828785998565   -1.85088425585037
H        -1.78940144013790    3.66618102440176   -5.62334260359535
H        -3.49813474065000    3.82161769414711   -5.10420406064131
H        -2.28065637666283    4.94470085985024   -4.46595470504630
H        -3.72698795634250    2.95253548945042   -0.10186163768062
H        -3.03724787495117    1.27986480406019    1.62171604738361
H         0.29934298261984   -0.98096351169577   -1.93922387964342
H        -0.42039437578345   -4.04301895842085    0.82047211787273
H         1.18595742325105   -5.89955216304771    0.74247227862112
H         3.27300571030740   -6.80904217043820    0.05406839575172
H         4.55032302700589   -5.68909510853474    0.53640368443803
H         4.19571489941250   -5.92097784307995   -1.16760685753359
H         4.11001254119309   -3.30294917077400   -0.96762331539058
H         2.51292929466591   -1.43358008366525   -0.87089452244869
H        -0.99017684579457    1.09297036610993   -2.81548737809091
Cl        1.08541460879592    0.68688982273923    1.69126484842523
