62
 energy: -113.303806035906 gnorm: 0.000358463396 xtb: 6.4.1 (afa7bdf)
Ir       -0.23729299924141   -0.69994055322036    1.46838753268407
C        -1.78187586634473    1.14035327319463    3.95812614748550
C        -0.53947907702780    0.63818591264891    3.31939273823058
C         0.10464365259847   -0.59449315710612    3.68030573043695
C        -0.34674123891597   -1.51165372815906    4.76372596588610
C         1.38260248729174   -0.63660585515406    3.02397909519987
C         2.50412843807628   -1.55181773378030    3.36246371901155
C         1.48804123878552    0.52019543598492    2.18358608066446
C         2.72851360497794    0.95253440475981    1.48994745894135
C         0.28567557749583    1.30921776464988    2.36083935769410
C         0.13194649454835    2.69207670667474    1.88280993399582
C        -0.10686363003834    3.71315373780935    2.79965390471451
C        -0.20696065202030    5.01401671228002    2.34310273801809
F        -0.43564367934921    5.99543955720288    3.23845444797772
C        -0.08057630802128    5.34908804259324    1.00728368900003
C         0.15714525576172    4.31179800359986    0.12259518829319
F         0.28252887051597    4.59766002631886   -1.18918659777460
C         0.26949740654781    2.99707760519234    0.53023506539830
H        -2.14515292431198    2.04095172830046    3.47477220177325
H        -1.56530704556144    1.36165602228135    5.00430372559593
H        -2.56533145593226    0.38589986793399    3.94563852948488
H         0.06872222295748   -2.50598166593998    4.62972283374493
H         0.00062789919811   -1.12620687410024    5.72276550118575
H        -1.43037569981567   -1.57536975799943    4.79978442259217
H         3.02599347016732   -1.13811224591979    4.22683786670952
H         2.15282973197331   -2.54526960338190    3.62457579183760
H         3.21546797402500   -1.62707267422541    2.54612547178460
H         3.12635721849082    0.16105742441561    0.85896680947339
H         2.55187594220911    1.83215351721167    0.87891327276813
H         3.48379217322849    1.19075414963716    2.23982777762262
H        -0.18997820390779    3.51555222534944    3.85528581877034
H        -0.16325535684032    6.36903351719177    0.67121286077867
H         0.42509673450483    2.22036566041118   -0.20203827485256
C         0.80225992035325   -7.13305298155862    3.39061150533414
O         1.97229966683012   -6.65357059516416    2.74652914958012
C         1.92392702662776   -5.50231303021596    2.06214831067695
C         3.10893081882149   -5.12457244989167    1.41564314993065
C         3.13835938994675   -3.95138251415280    0.69475760582859
F         4.28027684511081   -3.59677092346180    0.07541232203256
C         2.04440552365684   -3.10871698284157    0.59126704720343
C         0.86902997828383   -3.49812223011709    1.22404954028849
N        -0.26460431632316   -2.68071061283215    1.08343457164125
C        -1.38054867045048   -3.22130559717073    0.70915271928525
C        -2.49022186716204   -2.35249523610586    0.47605729557626
N        -2.27305177162903   -1.04233219757942    0.75200434407223
C        -3.21586986870522   -0.16781937753489    0.41068090052808
Br       -2.88065238119977    1.66140438778670    0.68858810358741
C        -4.43562290901502   -0.53329012502785   -0.14935079819831
C        -4.69478498788105   -1.87174889688133   -0.39729123467725
C        -3.69880426758868   -2.77981649213690   -0.08849675611308
F        -3.86553313840226   -4.07990188580039   -0.33290821351830
C         0.79961156483850   -4.68344606062555    1.95610361565756
H         0.46518318639061   -6.44124559024570    4.16569034408617
H         1.09286551260511   -8.07511630081786    3.84997196762705
H         0.00150732310521   -7.31330305138785    2.66962186863298
H         3.97959278934038   -5.75476474814413    1.48455376783716
H         2.08394936676698   -2.20953826605203   -0.00115950963754
H        -1.46363329401796   -4.28056614647829    0.49330367920426
H        -5.16413174142036    0.22690427915798   -0.38291060529318
H        -5.62664199567577   -2.20198739223543   -0.82874038362870
H        -0.12306185021784   -4.93908254378805    2.45078524897499
Cl        0.16266089103031   -0.32728288543426   -0.84810836153983
