67
 energy: -105.805830444217 gnorm: 0.000630618435 xtb: 6.4.1 (afa7bdf)
Ir       -0.57914634508886   -0.45967695751484    0.85305250049801
C        -1.50295579543665    2.14869249979638    3.03297888964496
C        -0.59344750268698    1.05813696242476    2.58877173648943
C        -0.68440229597323   -0.30593144742705    3.07132068944004
C        -1.71469951571756   -0.79964333013846    4.02940856219733
C         0.54425546315314   -0.97037232990062    2.75035240170594
C         0.99289099490300   -2.27442600771524    3.30869741428374
C         1.31135186782290   -0.08798406815611    1.92903594908636
C         2.71889810503877   -0.28542880734060    1.48413763867313
C         0.61467199964845    1.18721840802303    1.86576438953605
C         1.22509318139593    2.42903999413370    1.31520727929713
H        -1.24568870888799    2.40571592623222    4.06194582042987
H        -2.54285370471628    1.83484227474663    3.01896395124323
H        -1.39288257211618    3.03789127335913    2.42123752848224
H        -2.68955003392675   -0.37325010125342    3.81048160205053
H        -1.78797795876092   -1.88321370852037    4.00484057244364
H        -1.43558863113181   -0.50165523390745    5.04085211393077
H         0.16023884711676   -2.95625772973477    3.45740243476181
H         1.73182603138311   -2.75190283405641    2.67185579488628
H         1.45321803053771   -2.08779438661260    4.27999746601856
H         2.87040763134175    0.12853723748822    0.49006084316345
H         2.98861920193879   -1.33706182313109    1.47657808770523
H         3.38589331414736    0.23825687850242    2.16979836576464
H         0.52201872455171    3.25581462347487    1.32077266812163
H         1.56791031875257    2.26860472716083    0.29523934207903
H         2.09076208758973    2.69953667353572    1.91960329754981
C        -2.73127851617660    8.29408523585473    1.28326786678419
O        -2.97062688235269    6.89795645611241    1.13015085849431
C        -2.03945008167398    6.19150761711055    0.48569990477604
O        -1.02007948099427    6.67400379010266    0.04309285413965
C        -2.38835945038859    4.75094660494288    0.37962164537440
C        -3.54802884702635    4.22929634655411    0.95170714721557
C        -3.84501714083626    2.88981807346873    0.80236009222945
C        -2.98258868399291    2.04319349382201    0.10030257078930
C        -3.39271185473362    0.65640925996845   -0.17671229936225
C        -4.67719081847001    0.48015014102512   -0.70327843135246
C        -5.11770392231174   -0.77513262270286   -1.08142461003671
C        -4.24709486270339   -1.84012820337743   -0.94034427667735
C        -2.98846647098449   -1.60985172304000   -0.38962231639560
C        -2.02334857895794   -2.65869151649007   -0.24736246405328
N        -0.86880702220589   -2.35748057994743    0.24940451209671
C         0.10756969821760   -3.35657874210540    0.37847129516036
C         1.39523516317803   -3.13351317000823   -0.10785418113375
C         2.35981155630655   -4.11565224692630    0.00746374334957
C         2.04140978138193   -5.31704584723030    0.62552732329587
Br        3.38775751647908   -6.67416207513551    0.81078100700718
C         0.76578325899607   -5.54992176504894    1.11944845565987
C        -0.20256155701078   -4.57365762103559    0.98785653028969
N        -2.56925965866025   -0.38136612431416    0.01442180163358
C        -1.81675047265598    2.56358871788707   -0.45657282372476
C        -1.52811846919140    3.90885328310831   -0.32150224200865
H        -2.77419956082708    8.79205685612252    0.31286105176888
H        -3.51575996960762    8.66321733990264    1.93787312013781
H        -1.74602281848179    8.46260575215328    1.72181471985616
H        -4.21084325380261    4.87939631609469    1.49896469140457
H        -4.74600027280250    2.49263187673335    1.24454471145029
H        -5.30628052666778    1.34603047729949   -0.83155909704864
H        -6.10606900560290   -0.91389276580446   -1.48978385497805
H        -4.51975696460317   -2.83601380342223   -1.24836291214052
H        -2.24624672859932   -3.65909611811771   -0.60131326530678
H         1.61838679870597   -2.20132730678237   -0.60199090248092
H         3.35241384742252   -3.95166454045555   -0.38072034316103
H         0.53431817367072   -6.48593199685907    1.60128294925450
H        -1.19294596455992   -4.74335643338510    1.38113230601743
H        -1.16090837316131    1.92754634928776   -1.02806855334665
H        -0.64170324587646    4.33209686288822   -0.76905124153660
Cl        0.25752692667055   -0.06713736166868   -1.35921568292242
