61
 energy: -97.506580800389 gnorm: 0.000538576440 xtb: 6.4.1 (afa7bdf)
Ir        0.00705089417701   -1.10817134119661    1.45559755460449
C        -1.85235976130319    0.00798575712454    4.04028105998473
C        -0.50261562596848   -0.26571434307800    3.47605738186758
C         0.24434527636432   -1.46805204432163    3.66781867254336
C        -0.17721530179745   -2.61450877205209    4.51940100754289
C         1.54307384003791   -1.28590307422610    3.06702325982168
C         2.72932967671409   -2.17371109306500    3.24761824484859
C         1.60885417161925    0.04933527317056    2.54848641407378
C         2.83920730840258    0.70410488378157    2.03547256987259
C         0.32721774888649    0.66480142571895    2.74933643667405
C         0.03897684998950    2.08435534803636    2.49897695692836
C        -0.40787695588817    2.89986356318289    3.53711604945283
C        -0.61824176986205    4.24370725599876    3.29168654356530
F        -1.04349079042326    5.02609604834197    4.30396882727278
C        -0.40621306743508    4.81859083261030    2.05101467951529
C         0.03322094305711    3.98191577094242    1.03966677682751
F         0.24865493929645    4.50528023267770   -0.18388642616411
C         0.25854424665478    2.63261526135210    1.23544954432535
H        -2.30710500239191    0.87550056933530    3.57125486695732
H        -1.76014577562661    0.20108946137600    5.10967754894112
H        -2.51053290618074   -0.84914690192531    3.91986056367070
H         0.31571057311760   -3.53618250049330    4.22472546180875
H         0.09998641185862   -2.40308061753648    5.55288688865462
H        -1.25303469602943   -2.75886361719119    4.48287724733409
H         3.30110659538515   -1.82419491928381    4.10816298965933
H         2.43538620067522   -3.20131195052339    3.43625303738779
H         3.37925000015008   -2.14043659596295    2.37746205092923
H         3.14731810116135    0.26864215679941    1.08576170461245
H         2.67735056872552    1.76852638742935    1.88691071908760
H         3.64936401373701    0.55759506551064    2.74876491130893
H        -0.56279590196167    2.51214848284804    4.53025324757227
H        -0.57357251800416    5.86896242965523    1.88060339626452
H         0.59023216065384    2.01772935158337    0.41255449171440
C         5.29815988290788   -4.74968358520681   -0.01228123210171
C         4.07739801819938   -4.83241395457369   -0.50760276424362
C         2.84013391206975   -5.01673751114369    0.31608153046948
C         1.83856083625778   -3.89032579360366    0.05018874481323
C         0.55814763293136   -4.07733875400112    0.87825939984761
N        -0.32474461390007   -2.95460430681925    0.68729534973100
C        -1.31880897184015   -3.06437277819588   -0.12763841736707
C        -2.13707183903719   -1.90416095857161   -0.33633426051538
C        -3.20552853109127   -1.83223683015363   -1.23264641184545
C        -3.90231094309175   -0.64815877767864   -1.35965121009276
C        -3.50156774179738    0.43765466814973   -0.58210991232751
Br       -4.41768577443183    2.10356322367173   -0.68976882160797
C        -2.42857328184876    0.30593576859246    0.28922674068818
N        -1.76802157280348   -0.83664756284505    0.41396687931430
H         6.16206138846914   -4.62701724613892   -0.64304636251520
H         5.48913242722605   -4.81339189652762    1.04669478023683
H         3.91873687727041   -4.76818964978593   -1.57623061277536
H         2.38291621003884   -5.97435150507552    0.05343238974000
H         3.10727431548429   -5.04400709111638    1.37286502929762
H         1.57846992617170   -3.86900365251859   -1.00883497833393
H         2.29005348193792   -2.92899949968426    0.29643731262045
H         0.82029703930827   -4.13855087482784    1.93523950291313
H         0.06124554377881   -5.00449368976843    0.57836797949800
H        -1.53713981917629   -3.99156836995911   -0.64645475000574
H        -3.47098794117177   -2.69476268680193   -1.82284452878314
H        -4.73149918384320   -0.55594471908729   -2.04304520453856
H        -2.10069562637215    1.14385465934774    0.88708777435515
Cl        0.97171590059181   -0.53827441229352   -0.64019562591061
