74
 energy: -110.719817735359 gnorm: 0.000432169718 xtb: 6.4.1 (afa7bdf)
Ir       -0.94580268469249   -1.33357119125526    1.14741201349444
C        -1.86352425686771    0.99630050245309    3.54176419233634
C        -0.82683520843736    0.12917511771852    2.91196424845264
C        -0.55107008571554   -1.22668822838583    3.32847144868103
C        -1.21955857282286   -1.91954994384235    4.46822771982142
C         0.67811222323651   -1.64116164471874    2.70400207682789
C         1.46571999628660   -2.85057851395271    3.07211592166882
C         1.06911370605284   -0.61849844632334    1.79863803298254
C         2.33936842857920   -0.54409149542740    1.02236505035936
C         0.13797885452184    0.49045377294041    1.93932926891562
C         0.36461763404731    1.83324484539794    1.32697931180212
H        -1.55786864985175    1.21645236654565    4.56517745158166
H        -2.82879301019469    0.49649675880335    3.58204194651055
H        -1.98115449832903    1.93415162941863    3.00868694750138
H        -2.27350724577462   -1.66035783514257    4.52033229031440
H        -1.12379573482088   -2.99846590688839    4.38179773638395
H        -0.74742277526370   -1.61258894455165    5.40234897490316
H         0.82032192219528   -3.66911108668324    3.37838367776910
H         2.08788906475091   -3.18795222772739    2.24787063328152
H         2.11611171955275   -2.59952512611486    3.91068828526690
H         2.15119534882759   -0.17167692616925    0.01782601569741
H         2.81706766741803   -1.51674134097275    0.95479026130414
H         3.02432077451839    0.14671684841446    1.51454505523126
H        -0.45156792393443    2.51652690882355    1.54332177981042
H         0.47771441781504    1.74886746104099    0.24731761879021
H         1.28536500182561    2.25901478509979    1.72620065364934
C        -8.11951215267717    4.46261995838501   -0.03947136002563
C        -7.61989021675284    3.02946523816225    0.05000149082517
O        -6.20579809081228    3.06973910960288    0.20206268390361
C        -5.51635470757097    1.92737484291013    0.31605070563983
C        -4.10959955028961    2.08155399877406    0.42700857494966
C        -3.29132639491927    1.00385064009291    0.57233089102706
C        -3.81597707571858   -0.30598180572705    0.60299641824682
N        -2.99767786673378   -1.37059154365655    0.75088139330697
C        -3.50031421729414   -2.60940569732901    0.61113471019985
C        -2.51776445751732   -3.64393988075107    0.59691816189047
N        -1.27778353278716   -3.27868087674678    0.71905020760650
C        -0.24886908496760   -4.21769917790118    0.65139027799407
C        -0.36567998921056   -5.46998541466348    1.29873771352582
C         0.65117781490768   -6.37599530416430    1.22643658214521
C         1.82573772239424   -6.10249184648891    0.48882525538951
C         2.87462661905997   -7.03482940119760    0.39654119972795
C         4.00280250914328   -6.74638375221411   -0.33927508851546
O         5.06612412774226   -7.56536426784990   -0.50055784998308
C         5.05257764422283   -8.83424483691853    0.12296431659643
C         4.10604559450952   -5.49791580826427   -1.00450342481278
C         3.10644393879219   -4.57880355119799   -0.92098849021103
C         1.93678707872635   -4.84745582105521   -0.17052218040240
C         0.89619406954783   -3.91460164231935   -0.05812301681501
C        -4.87908076472806   -2.84680841762645    0.43544758447767
C        -5.73754749305249   -1.78808011096723    0.38207866401770
C        -5.22324776842713   -0.47202097397256    0.43670673664970
C        -6.05157527880174    0.65435063241157    0.31435216749584
H        -7.66969143952491    4.96382242474571   -0.89209040461236
H        -9.19930260528781    4.46565409642932   -0.15473150158574
H        -7.85635342145021    5.00748191889260    0.86292529157790
H        -7.87516003933480    2.47805066270704   -0.86372163928168
H        -8.06934182936312    2.52294298202486    0.91322416584708
H        -3.71533596688579    3.08388230519400    0.37973231979110
H        -2.22128798666599    1.12410840593673    0.60923659103808
H        -2.79491964071459   -4.67410285057238    0.40858733837473
H        -1.25080999736334   -5.68384047878060    1.87800592828936
H         0.56763629229919   -7.32347716192975    1.73701340830999
H         2.76622247421850   -7.97605458795985    0.91163545686474
H         5.99354300008284   -9.30575213795323   -0.15317911680615
H         4.99754970506568   -8.73930404022658    1.21101311780014
H         4.21959807665160   -9.44381451584281   -0.23809472934773
H         5.00142054804213   -5.31081591041154   -1.57558664265824
H         3.19119532652850   -3.63067821239232   -1.43006478544760
H         0.96774010449589   -2.96579809081364   -0.56893707843010
H        -5.22665759433351   -3.86313934977295    0.35085780119306
H        -6.80044686645252   -1.93706987855581    0.27170801817167
H        -7.11057587834102    0.48946239954527    0.19899501667866
Cl       -0.64670285138412   -0.82209440808202   -1.16858749396861
