67
 energy: -107.578705687493 gnorm: 0.000263195764 xtb: 6.4.1 (afa7bdf)
Ir       -0.56424654988924   -0.74132411124291    1.46330148043525
C        -2.18055463144608    1.15340968685971    3.86851005540591
C        -0.94257222766806    0.47657396673873    3.39510294956781
C        -0.59651095216090   -0.88691899575595    3.69796742714372
C        -1.38400098708074   -1.78540004666988    4.58989579314218
C         0.75980512076818   -1.10260140358702    3.27268652178306
C         1.62684451268622   -2.23929199643161    3.69014967185347
C         1.19511988557174    0.06138708030613    2.57538105717210
C         2.59125481479046    0.32401667538148    2.12685438705493
C         0.13315410872231    1.05538861427053    2.66923156600253
C         0.30846209394824    2.48534202801561    2.36478496039923
C         0.16413459533875    3.41559522297699    3.39363467580580
C         0.38506256223593    4.75278612429302    3.12557432568532
F         0.24907448032584    5.64496862654993    4.12880196849666
C         0.74072711066911    5.21372643459938    1.87048241790732
C         0.87041949474652    4.26641555239567    0.86998979937628
F         1.20955242801089    4.67966558995534   -0.36822012290490
C         0.66441382440425    2.91761396528674    1.08912227280586
H        -2.28230992625696    2.14410584055414    3.43612581640212
H        -2.13539961948423    1.24613336255572    4.95413638498075
H        -3.06725022193294    0.57072084118219    3.62823914641155
H        -1.15118100362962   -2.82951634590242    4.40286985949836
H        -1.13711429149009   -1.56446763676200    5.62909662079731
H        -2.45080444057146   -1.62967525826913    4.45703415658184
H         2.03168130110579   -2.00870044603794    4.67682093010338
H         1.06765004166171   -3.16717362366510    3.77311610085340
H         2.46787895778399   -2.36919011226130    3.01472995778680
H         2.99983890474682   -0.52949202134525    1.59165561056896
H         2.63724768573419    1.19345944012098    1.47842240464494
H         3.21672285931072    0.50886619143095    3.00116659918790
H        -0.08933814548094    3.11005968041201    4.39539313094725
H         0.91022065834897    6.26048867702352    1.68158835479452
H         0.75712055258894    2.22082683116322    0.26986534214531
C         2.67854158559185   -3.53926481435095   -3.20056084957990
C         2.95070956774570   -4.33683534463590   -2.18467942206533
C         2.24945045853058   -4.38404772781352   -0.85935097501520
C         1.07703259814258   -3.41705317519003   -0.73144081770042
C         0.41958908374488   -3.54161303185334    0.65300325670335
N        -0.68741784952083   -2.62113300565637    0.76007049997554
C        -1.83557644147738   -2.99292133013429    0.30382770674828
C        -2.87787266940913   -2.01236689669173    0.24241528533450
C        -4.16981925227233   -2.28894746947633   -0.24515922214390
C        -5.07839224055727   -1.27301761255263   -0.33214391372040
C        -4.67860475722879    0.04176473758630   -0.00275887242126
C        -5.54504976106449    1.14038039691433   -0.14928112093969
C        -5.10003891147259    2.40994159477716    0.11796948078574
Cl       -6.15517688622273    3.76667484330583   -0.07680222854481
C        -3.77316593288101    2.63094791225295    0.52946983940429
C        -2.92191767768581    1.57573119277518    0.70510073986346
C        -3.34717648063650    0.25363360293024    0.46545778054674
N        -2.50130717030400   -0.78913762593849    0.64376221240607
H         3.24627437311925   -3.58650962423884   -4.11462349671428
H         1.89266817142160   -2.80474500431202   -3.17595454231947
H         3.75991522497319   -5.05211041035496   -2.27197313354677
H         1.90219850679153   -5.40953484179938   -0.70043779801835
H         2.98944584528098   -4.17633338798570   -0.08116394012256
H         0.33559130243307   -3.63328921245966   -1.50160602386884
H         1.42083008395490   -2.39253359780684   -0.87074312845271
H         0.06314055411774   -4.56650327875301    0.79425527934608
H         1.15886942817471   -3.30916450643438    1.41694439849229
H        -2.00125411685771   -3.99616168742636   -0.07381724864281
H        -4.41776869237489   -3.29738594494125   -0.53270815545594
H        -6.08657617295459   -1.44968542809845   -0.67271382956322
H        -6.55342930908970    0.97204912433817   -0.49162617545542
H        -3.43587441880157    3.64094984755303    0.69626701175877
H        -1.89417275540138    1.74983935845475    0.98012011671724
Cl        0.11308671576364   -0.03815808612928   -0.70363733662236
