74
 energy: -112.960110072548 gnorm: 0.000418435735 xtb: 6.4.1 (afa7bdf)
Ir       -0.35524275538304   -1.41009299960758    1.27292317133594
C        -2.02054967613118    0.72031407772963    3.37830095294270
C        -0.76669412031568    0.02084741474656    2.97668855175193
C        -0.39878021579227   -1.27199652912438    3.50529288524404
C        -1.19060311112759   -2.02671795580320    4.51902899958032
C         0.97229070416624   -1.52346526806545    3.14919504712066
C         1.86649151440928   -2.55852394083524    3.73819346386640
C         1.39666967590299   -0.46962240097335    2.29432003048253
C         2.78531910987817   -0.27580267031115    1.78955714530034
C         0.31888476582161    0.50653335762889    2.19057802679342
C         0.53742231458302    1.88141676206707    1.61980418970562
C        -0.50475065838916    2.34439056839232    0.59691280903819
C        -0.09255567271999    3.69945179382434    0.02726156318067
C         0.03384287263896    4.73306565951896    1.14404508391140
C         1.04370072360956    4.27054087614042    2.19122593335351
C         0.64842599781402    2.90970298012445    2.75799728250540
H        -2.88652602199090    0.06821782625332    3.28452247989354
H        -2.19025924676929    1.62226669522279    2.80170327120152
H        -1.93335957563237    0.99833956580318    4.42946080152173
H        -0.93447840766157   -3.08203195560935    4.51691398197117
H        -0.97473830347704   -1.62516965819047    5.50989925574612
H        -2.25712272394696   -1.92599938166376    4.33998037497697
H         1.30679660444827   -3.27087633068556    4.33460328813704
H         2.42082996655358   -3.09234045827880    2.96974325600230
H         2.58707238722872   -2.05958658829234    4.38686526565273
H         3.36891134986141   -1.18413860729775    1.90412517386964
H         2.77944801920734    0.00041158758391    0.73700350466112
H         3.26740680428736    0.52509516296237    2.35053474672868
H         1.49737763226448    1.86195087791527    1.09548922973673
H        -1.48541608390858    2.45283709363621    1.06119113006171
H        -0.57282199365831    1.60797515993142   -0.20571659039713
H        -0.83101028292696    4.03212071985935   -0.70475070021867
H         0.86473603250914    3.60283775327065   -0.48987416607685
H        -0.94024503141000    4.87946339058665    1.61691546811037
H         0.34614106204558    5.69269283035911    0.72746994978289
H         1.10048982273273    5.00126108721380    3.00054662591021
H         2.03329919520487    4.20372957466179    1.73337412630877
H        -0.30743742729250    2.99920737909805    3.27443597678132
H         1.39364141867931    2.57864548923487    3.48363446417247
C         1.75973254980293   -2.77865729894183   -3.83100593244772
O         2.01630508957624   -3.38623901165278   -2.56786398263420
C         0.96342415642163   -3.79152996113639   -1.87448869286055
O        -0.18028172000156   -3.73206290618186   -2.27522081698658
C         1.36505693212874   -4.41368709565311   -0.57730094724605
C         2.49200369356835   -5.21391838483257   -0.53859855158759
C         2.87232118319567   -5.88070880418435    0.63236125953363
O         3.97314557696937   -6.64790848121144    0.54151587092587
C         4.41698328791175   -7.35732368762730    1.68590166089276
C         2.09782158840565   -5.71583477099164    1.78201760641855
C         0.99776536747274   -4.87951008659124    1.76020332710948
C         0.61573897454181   -4.22066041711467    0.59797855254320
N        -0.48377408259016   -3.34645562363426    0.60183101974632
C        -1.53335454945619   -3.65485307712308   -0.08924574335921
C        -2.53202852816191   -2.64109587302014   -0.23922131342457
C        -3.69706861339315   -2.79201700952430   -0.99548098229670
C        -4.55684306718857   -1.72386461306107   -1.13756316016217
C        -4.21104987329461   -0.52373730260935   -0.51672992757551
Br       -5.33177677626888    1.00406432529313   -0.66155984836716
C        -3.04334719496139   -0.43613365746375    0.22633989387446
N        -2.22385041290484   -1.47081691260967    0.37493654617017
H         2.73073264367588   -2.61658516972151   -4.28969305359233
H         1.13897284741338   -3.43217563085555   -4.44642599866863
H         1.24107425167093   -1.82954914511585   -3.68226442612816
H         3.08694907340721   -5.35346160437385   -1.42610620805432
H         4.67509494642931   -6.67401841887385    2.49847242400279
H         3.66440098162332   -8.07394212771907    2.02381513029799
H         5.30812404984466   -7.89287200217971    1.36578415716753
H         2.34394397837964   -6.23112338162607    2.69577959740813
H         0.39432064928696   -4.76085869773447    2.64494260634440
H        -1.64950218019126   -4.62455297653817   -0.55545288653922
H        -3.90037910043627   -3.73742613491930   -1.47123335288385
H        -5.46416253360970   -1.80537204076300   -1.71491214880520
H        -2.76940400585578    0.49167721034304    0.70427414012461
Cl        0.50727315128666   -0.94034916908235   -0.89324086956733
