85
 energy: -131.957543171528 gnorm: 0.000463056646 xtb: 6.4.1 (afa7bdf)
Ir       -0.59578748635739   -0.61117467871775    1.38188214032519
C        -1.81268720601078    1.13807676329687    4.05252770784142
C        -0.65010651717719    0.49876393775402    3.37451524484380
C        -0.24528278915569   -0.86614632545434    3.55831155181952
C         1.02456891360890   -1.04733620107669    2.89699394966691
C         1.91908431037686   -2.22495940881189    3.07934476390212
C         1.34104532816154    0.15749169703263    2.21616882185267
C         0.29519333606439    1.12728320409915    2.50911081896447
C         0.41299104468983    2.56788519202738    2.23772732399890
C         0.35371172016440    3.47384231825168    3.29633754488549
C         0.52383135379317    4.82503150031343    3.07132944349112
C         0.75424142590158    5.31464800927367    1.78640064084076
C         0.94906844191741    6.75324623101343    1.55235758415428
C         1.91503066108946    7.19943758668879    0.65217707584500
C         2.10694690730955    8.55193025342117    0.43791500788039
C         1.33322952891412    9.48149463824643    1.11371627643656
C         0.36735997092438    9.04936171151965    2.00803831893312
C         0.17871408849863    7.69743126889867    2.22872604025545
C         0.80484740700479    4.40507393047350    0.73084667282992
C         0.64117412829818    3.05256769597427    0.95093793271373
C         2.61641510246764    0.48574212521911    1.51659814154431
C        -0.86342126574239   -1.82351274382176    4.51983049955235
H        -1.58563883390900    1.25054779032861    5.11323817746063
H        -2.70460477945779    0.52041309052426    3.97150220319635
H        -2.02221597930059    2.11748762129188    3.63275970760711
H         2.51804549115397   -2.07022428807998    3.97776303304803
H         2.59234803520408   -2.35168440244071    2.23688473724554
H         1.35012910837022   -3.14171407895614    3.20693897053141
H         0.20896129904247    3.11403374355012    4.30303989763656
H         0.50484477419652    5.50898802249274    3.90642920705530
H         2.53445486600850    6.48293337517907    0.13261829183374
H         2.86434433606405    8.88345544741752   -0.25782439097892
H         1.48257664360955   10.53775480735645    0.94415700591024
H        -0.24058947163743    9.77044887514786    2.53519633667416
H        -0.58619408940023    7.37052164966651    2.91783452827924
H         0.96065704576671    4.76373342587012   -0.27526341888966
H         0.66512736714296    2.36639500154105    0.11826643521072
H         3.35733586861388   -0.29231789178315    1.67528966346009
H         2.45328185617562    0.60782263626955    0.44664286558273
H         3.00317031137894    1.43013624011007    1.89683384452353
H        -1.93560551925191   -1.66572272267398    4.59601495896950
H        -0.67495669539061   -2.85266933320219    4.22624022862086
H        -0.42719839153362   -1.66984033227098    5.50761122877458
C        -7.65573980412837    5.38492473020356    0.51104348365679
C        -7.17414014888549    3.94372116110134    0.46828914359478
O        -5.76747960108773    3.94754797846858    0.69071120070506
C        -5.09118982125673    2.79566824995771    0.69663705675098
C        -3.69135589869465    2.91628725487733    0.90629270030473
C        -2.88714966937347    1.82012407408638    0.96040979162946
C        -3.41757153271154    0.52183073730241    0.79439996537997
N        -2.61863843684689   -0.56509651558723    0.85536906108450
C        -3.12509241333862   -1.77211400879949    0.54648924305601
C        -2.15797031600175   -2.82067536622260    0.47399992003840
N        -0.92732211885097   -2.50911881393243    0.73051541379318
C         0.08345433948453   -3.47016695041932    0.61093001104067
C        -0.07792203028109   -4.75088825941449    1.13314976917887
C         0.94404499844844   -5.67378811371812    0.98793025802606
C         2.09481751862060   -5.31918136325135    0.31705188979823
F         3.07776462823688   -6.23322673936980    0.17388544536471
C         2.28439901759462   -4.03378336638944   -0.22043150804266
O         3.44734787784447   -3.79809620258861   -0.85458609211641
C         3.65572550247753   -2.52185459472252   -1.43320423537296
C         1.26045134780044   -3.11064785440700   -0.04652569950523
C        -4.49136546529462   -1.96611150322695    0.26073894192855
C        -5.33618100501523   -0.89473083772689    0.28290975080173
C        -4.81614775245091    0.39629995387441    0.52931631547198
C        -5.63053534057323    1.53803084316586    0.50509905563690
H        -8.72866758437075    5.41567017673059    0.34653333425703
H        -7.16112028850622    5.96811586345079   -0.26068671191737
H        -7.43123233458003    5.82622593429197    1.47798288123541
H        -7.66798164540128    3.35284203343440    1.24949061317422
H        -7.39047342693299    3.49873825556099   -0.51063324950792
H        -3.28590083377276    3.90904962017785    1.01457277993879
H        -1.82258682215339    1.93598634406073    1.08300672011417
H        -2.43751349208535   -3.81368558114690    0.14156080285936
H        -0.97461916849129   -5.01524646963846    1.66958746009487
H         0.85627007013553   -6.67170762659374    1.38605384890918
H         3.64658077796945   -1.73804783947420   -0.67226965142817
H         4.63907106454164   -2.57203310912223   -1.89532575364955
H         2.90200669982578   -2.30536485619162   -2.19382395720757
H         1.33367807464109   -2.11300318714445   -0.44906084225503
H        -4.84134957277064   -2.95968337815552    0.03442759807158
H        -6.39123335784029   -1.01266229182838    0.09095012375581
H        -6.68253461492710    1.40108060221393    0.31431590095744
Cl       -0.14769906862762    0.01301263319457   -0.87962179393409
