79
 energy: -118.156972507702 gnorm: 0.000374108480 xtb: 6.4.1 (afa7bdf)
Ir       -0.50362607669498   -0.73866426041309    1.27482855164983
C        -2.37620537611112    0.96970091102606    3.63030575905814
C        -1.09127516128724    0.32546036262193    3.24218910681477
C        -0.77480809995434   -1.05700450764028    3.47407820988148
C        -1.65042096420685   -2.02010672516095    4.20256311693474
C         0.62439358430124   -1.24176097024382    3.19644503390310
C         1.43901803369827   -2.39915808874295    3.65809293534882
C         1.12608170365330   -0.03729856813699    2.62969680045310
C         2.56076463036658    0.25669039903403    2.34987983113529
C         0.05457678511277    0.95227933725237    2.68197366846757
C         0.25618133240411    2.40046643164430    2.51519723787438
C        -0.03278131394544    3.24531661320544    3.58678500051934
C         0.21338396553465    4.59897522506179    3.46217251447943
F        -0.06641674127918    5.40596857868587    4.50733364740195
C         0.73411229204024    5.16037005716448    2.31006609380279
C         1.00284112709319    4.29706243915387    1.26219830645319
F         1.50536964599329    4.80924020417944    0.11980542154749
C         0.77647883709818    2.93621530278947    1.33911883954511
H        -2.44339580772685    1.98221769806253    3.24469948988168
H        -2.43795425216751    1.00250704407029    4.71845903946235
H        -3.22940513198048    0.39797573037760    3.27203351400942
H        -1.41275281960996   -3.04715381800088    3.93996928542911
H        -1.49910621916875   -1.90183729312842    5.27620929497560
H        -2.69880043646298   -1.83430825547251    3.98681406985025
H         1.72604557228293   -2.21396404030248    4.69464867892872
H         0.87554997063574   -3.32819744897455    3.63651746092019
H         2.35136755891756   -2.50329873251848    3.07862444648479
H         3.05751666602181   -0.60704635091249    1.91566647966475
H         2.66271151845736    1.09530490793702    1.66808468521630
H         3.06525316819751    0.51054107129529    3.28295952718706
H        -0.41513434285692    2.86038017872026    4.51763780247106
H         0.92334947934923    6.21797783913727    2.23284950424392
H         0.97541546199117    2.31111012030427    0.48208584742077
C        -5.79635443920014    4.89166627809782    1.67602667602231
C        -5.69702085027394    4.71702486677121    0.16404216030041
O        -5.94986369905451    3.37668560626263   -0.24197449272919
C        -5.02732075096104    2.41737670568562   -0.08688872645046
C        -3.70196453836168    2.62183770167822    0.36572137689888
C        -2.83595191550024    1.57342499804587    0.49976383277756
C        -3.22423143846249    0.25671934623715    0.18683831416304
N        -2.36931022610294   -0.77813838267124    0.34214891835845
C        -2.71359659088153   -1.99089455236202   -0.11222294859212
C        -1.65873467084995   -2.95789496623914   -0.05666898570512
N        -0.51996211638277   -2.58825214951726    0.42037305136074
C         0.59499970229546   -3.50182905415537    0.38075062796389
C         1.77832184293228   -2.97744581036740   -0.46698720998607
C         3.10105157170559   -3.47784953179610    0.13450514458760
C         4.33508478274299   -2.81845455789884   -0.47492303715994
C         1.66595666123837   -3.41049296125105   -1.93390194163044
C         0.41363198920906   -2.91664666034149   -2.65211707011610
C        -3.98828385580327   -2.26428130178068   -0.64819978736253
C        -4.90712869549438   -1.25887807691467   -0.72581008780391
C        -4.54191407004382    0.04965967009851   -0.33021580524852
C        -5.41584142748323    1.13339150602050   -0.43845372768067
H        -5.65014159063381    5.93783671697139    1.92830940349045
H        -5.04600412401282    4.29662045681176    2.19057438450347
H        -6.77927615163915    4.58175294299128    2.02100471400115
H        -6.48153022338839    5.29457108313366   -0.33021215363894
H        -4.72732579605447    5.05842364296254   -0.21383051949500
H        -3.35392119899438    3.61522584075467    0.59800897692661
H        -1.81820272585839    1.75484637022975    0.80678427969975
H        -1.81744362955203   -3.95533409195566   -0.45257439542090
H         0.26920722350382   -4.47119888818508   -0.00778343692443
H         0.94223777613939   -3.64074301964133    1.40589849705056
H         1.76703781575398   -1.88404949955050   -0.42417059653177
H         3.10650803402947   -3.27154486846925    1.20590946877637
H         3.16985698930443   -4.56019081449518    0.00852362000154
H         4.49632679957463   -3.13979410873138   -1.49981770010643
H         5.22019210360046   -3.08568431822470    0.09825587735757
H         4.23392842633656   -1.73548692368983   -0.46770641253278
H         2.53239995209200   -3.01224025090370   -2.46166566483948
H         1.71812441116364   -4.50053681898497   -1.99418185811604
H        -0.46779003170350   -3.48080262862435   -2.36287812702745
H         0.24208128305597   -1.86537470253542   -2.43781744295132
H         0.53867523634346   -3.02721204651191   -3.72719760020780
H        -4.21353180004738   -3.26463337959430   -0.97903451521544
H        -5.90176652244883   -1.43552947133614   -1.10391665964808
H        -6.41306753813214    0.98095308064430   -0.81880700512501
Cl        0.26625542658075    0.25033363125592   -0.74710061740652
