70
 energy: -109.961625239100 gnorm: 0.000701032140 xtb: 6.4.1 (afa7bdf)
Ir       -0.82494135806622   -0.97917266003169    1.44555131274806
C        -1.97832350778414    0.95372830231294    4.13731621116573
C        -0.87708813960673    0.28159563577263    3.39585211643872
C        -0.58315016924868   -1.11626934316992    3.64269101366099
C        -1.29927242939008   -1.96740607490266    4.63566567460242
C         0.68083929508878   -1.42075385867794    3.04560531498323
C         1.51107158843456   -2.62056140891559    3.33808552887146
C         1.08120076301247   -0.27271103843215    2.28945147607985
C         2.40684409731380   -0.10524589495841    1.62945008061696
C         0.13978543660087    0.81165124168965    2.55377649800911
C         0.50713991582669    2.23462694032558    2.20980175885261
C         0.24456347062527    2.61426888278334    0.74474518544741
C         0.89190513390514    3.95942464983115    0.43051470287885
C         0.35471217915554    5.04701900900794    1.35659583689864
C         0.55717655784995    4.65302426755536    2.81711460901037
C        -0.11532696678664    3.31118709879928    3.10183697004666
H        -2.87436910246745    0.33767941929377    4.13725039737697
H        -2.22535056589059    1.92811355182299    3.74065832099921
H        -1.66212221011285    1.06901821535765    5.17504096544839
H        -1.07039897491694   -3.01839953010391    4.48850940810419
H        -0.98122700503949   -1.68739871896458    5.64020966160861
H        -2.37470931037996   -1.82840527366326    4.57633190788592
H         0.90253810037024   -3.50447990425598    3.50601430379361
H         2.22251383390011   -2.82510688898306    2.54381628813149
H         2.07423176841005   -2.42177438721858    4.25116847542408
H         2.84073461801804   -1.06693714016763    1.37226870772473
H         2.32614686929548    0.49516148218889    0.72778098547746
H         3.08540413976614    0.40185064222205    2.31668509604655
H         1.59424393954615    2.28629368971957    2.35802026318958
H        -0.82990133741297    2.68424429948740    0.57794371525408
H         0.63633017313976    1.85190142971466    0.07338122465358
H         0.69322384069332    4.22621235982522   -0.60951491485828
H         1.97557482458286    3.88303926214933    0.55082062542854
H        -0.71137920820653    5.18951163407390    1.16563246004461
H         0.85952429209119    5.99331845046065    1.15170613461917
H         0.13393398526198    5.41998383539145    3.46841343515705
H         1.62617290193988    4.58712780861154    3.03378163257198
H        -1.17697637347842    3.41417401807172    2.87781658023299
H         0.00939767211172    3.05293235670947    4.15380225243764
C        -7.22221696780773    0.49412113641296   -0.38524673310408
O        -5.89492836899526    0.61837469944077    0.10632773291177
C        -5.10751678893158   -0.44596127406853    0.16393407717528
C        -5.42765906021429   -1.75024401141586   -0.22556564053275
C        -4.45744900783927   -2.72555248277655   -0.12947693411978
C        -3.19675075812192   -2.41033437088410    0.37919556949274
C        -2.09922051822192   -3.32042510836265    0.36631309624875
N        -0.93599826183031   -2.88297290660109    0.73002404777300
C         0.18077350688915   -3.71896435094830    0.62015972174236
C         1.31376754679295   -3.25023600224960   -0.04988733425065
C         2.41644920600192   -4.06638601200934   -0.19008222435830
C         2.39320460456889   -5.34837476260766    0.35553674507163
N         3.53896636362030   -6.20043697480278    0.21085076898312
O         4.51431078413863   -5.75400235325884   -0.36431126361750
O         3.47448258548371   -7.32659200008645    0.66890971585957
C         1.27361696830441   -5.81926792346674    1.03621215941817
C         0.16601977210993   -5.00695149594448    1.16395917189034
N        -2.89614255511891   -1.15806171973167    0.82169020035135
C        -3.81096684165963   -0.21964395842526    0.67946343195144
Br       -3.41108790459064    1.54755420445771    1.13925492531283
H        -7.80848694120867   -0.18062296937013    0.24191626066655
H        -7.22534274906183    0.14668819904724   -1.42049690061988
H        -7.63929549637602    1.49750145148571   -0.33472906431411
H        -6.40337332106088   -1.98669548427155   -0.61748776126164
H        -4.65979219274239   -3.73163131587802   -0.45892656211097
H        -2.22916841286573   -4.32087067027261   -0.03176550787482
H         1.29593078399532   -2.25948788148552   -0.47718773802063
H         3.29682755304256   -3.73165948912591   -0.71653142732453
H         1.28979627669671   -6.81566335318488    1.44975546579666
H        -0.70474787348887   -5.35845020093052    1.69530034885312
Cl       -0.55672466966381   -0.34503997941057   -0.85006456504284
