77
 energy: -124.243538254004 gnorm: 0.000859845181 xtb: 6.4.1 (afa7bdf)
Ir       -0.38774657184122   -0.53978549688463    1.57869161937988
C        -2.25943849520180    1.28343575158011    3.83828905650999
C        -0.97064209687340    0.64347161040577    3.45420798404796
C        -0.59280880584758   -0.69984393104862    3.79799942022835
C        -1.42204403859232   -1.63864399888627    4.60853557605612
C         0.81288150083450   -0.84670230278922    3.52854860516309
C         1.67493717893975   -1.91422342945739    4.09869493817681
C         1.25618921117280    0.31963011283574    2.84549898269673
C         2.67311946241790    0.66970752800362    2.53936908747024
C         0.14212119974046    1.26213588703915    2.81944547563386
C         0.28540575465547    2.69601908761307    2.51940634611273
C         0.01433830976088    3.62011367389483    3.52820532877122
C         0.20782831326070    4.96475836433205    3.27775412783979
F        -0.05483900261595    5.85052275894421    4.26237667707208
C         0.65968999230314    5.43973919036698    2.05980102731783
C         0.91371133262203    4.49774697831630    1.07793281458249
F         1.34938664748358    4.92535259111741   -0.12493485324185
C         0.73788356348401    3.14234820027588    1.28026191462867
H        -2.37330890063294    2.25413392105912    3.36573278865374
H        -2.27094452085548    1.41549994454649    4.92100522278141
H        -3.11112807330798    0.65943412726340    3.57708809733011
H        -1.16943461316037   -2.67313993373343    4.39227025276680
H        -1.23682342732926   -1.46047442835953    5.66838037058899
H        -2.48093380789258   -1.48743420799525    4.41836436753611
H         2.00407052579545   -1.57956924205127    5.08450386795523
H         1.12820551684599   -2.84368774638505    4.23188338617649
H         2.56596063062788   -2.07972239450543    3.50003673384457
H         3.28763056652746   -0.22295967703546    2.45793264420992
H         2.74872676488603    1.24021985294047    1.61750649040509
H         3.06837389410867    1.28492140164395    3.34802275779364
H        -0.31644945210987    3.30484740047783    4.50396831315146
H         0.80783136470107    6.49207363038423    1.88431533379598
H         0.92259054242434    2.45019546330193    0.47301970899656
C        -7.31657084714466    5.13258310111194    0.06031349130529
C        -5.98882640118753    4.42321030078353    0.27402560786109
O        -6.25273492890004    3.02434785425221    0.32072203532439
C        -5.25452000067140    2.14612237632175    0.46097244587315
C        -3.89117032723364    2.49434058585559    0.61762454060230
C        -2.93514679164866    1.53011760306476    0.77124090800151
C        -3.27078492726270    0.16224974754439    0.75052547033996
N        -2.31668903668293   -0.78528398774234    0.87081012387336
C        -2.62313678138643   -2.06670601127768    0.61853345027119
C        -1.47417173657983   -2.90005009176728    0.43827351606799
N        -0.30749507058584   -2.40524088090548    0.69221423930399
C         0.83678155910721   -3.12322298452611    0.19244220071332
C         2.12274134593478   -2.34139922841454   -0.10593501848566
C         2.93765624424235   -3.54846959399382    0.39918439884886
C         4.15238924060555   -3.22714837208949    1.22978362507081
O         4.16894114886434   -2.41678107677894    2.12825762758070
O         5.19650973954585   -3.94297027958314    0.84129668926268
C         6.44854465561719   -3.75705878444401    1.50471900791456
C         1.66554063881398   -4.02022910031173    1.13699088565407
C        -3.94951534903549   -2.49621407730636    0.40806854888110
C        -4.95551249642701   -1.57439552983889    0.41886283614043
C        -4.63918827803553   -0.19962033247203    0.54095269508293
C        -5.60298088967717    0.80357987858033    0.42859398394164
H        -7.99689276149240    4.90883235729981    0.87708085751834
H        -7.15393719940770    6.20527511992496    0.01613778232646
H        -7.77010860921578    4.80380717774869   -0.87049073642009
H        -5.53243012029054    4.74756741895567    1.21720004649063
H        -5.30375496290729    4.64352396336468   -0.55383405166552
H        -3.59441898630756    3.53035259585616    0.60720482648801
H        -1.89517128784294    1.80531266854255    0.85427793487955
H        -1.59086763203158   -3.87370826815484   -0.02715646285524
H         0.53194469212966   -3.69726617450080   -0.68735492417626
H         2.23527599964598   -1.48575090195229    0.55621598906817
H         2.27305816974487   -2.02944325318463   -1.13444679709759
H         3.22906418591435   -4.22754782448669   -0.40056631059914
H         7.13610496380944   -3.27286182520128    0.81169716696694
H         6.82339114993176   -4.74198260517176    1.77527866464975
H         6.31304338266623   -3.13813119473562    2.39194621847336
H         1.45066257188100   -5.08426819809920    1.10476309462902
H         1.64400009436949   -3.65932734296927    2.15891448409347
H        -4.14174809298842   -3.54492055222117    0.25181749717788
H        -5.98597447324181   -1.86702452706866    0.29367204950484
H        -6.63806109478190    0.54056638568094    0.28146707557059
Cl        0.20252483382905    0.28037717705865   -0.58204117885119
