70
 energy: -110.591813529204 gnorm: 0.000214567720 xtb: 6.4.1 (afa7bdf)
Ir       -0.01919535363486   -1.01207394314124    1.89178298321492
C        -1.61093150147987    0.54624671679623    4.44796123781246
C        -0.32804524207051    0.19042780586269    3.78129648076375
C         0.47211037129361   -0.94493161701129    4.11721002375157
C         0.17132090645758   -1.86746470709092    5.24827851640439
C         1.71800441013597   -0.84300977048018    3.39330883224506
C         2.96982378954281   -1.59102785009767    3.70670832975150
C         1.66412323123148    0.32571522701923    2.58106082242595
C         2.81051117196791    0.90042280588630    1.82794870588180
C         0.37534742344207    0.95565183058214    2.79046614540011
C         0.03105196569506    2.31416913667489    2.34077519062526
C        -0.24742403136096    3.29568103244654    3.29133520044175
C        -0.51601774211827    4.58331806930748    2.86742251961126
F        -0.77909268508410    5.52692648226063    3.79431304060701
C        -0.52385202227992    4.94298383960753    1.53128001429492
C        -0.24566045736664    3.94558843398827    0.61296263040427
F        -0.24564198257406    4.25884109967543   -0.69841835380947
C         0.03058263444252    2.64410429672431    0.98707897177900
H        -2.10383506293510    1.37557667907821    3.94983307916671
H        -1.40303473622025    0.83664501549881    5.47845520753621
H        -2.28831236193934   -0.30436190737754    4.48215642763003
H         0.82773597435322   -2.73168831670780    5.25221231451682
H         0.31793876005865   -1.32815166768638    6.18512969658625
H        -0.86172040941089   -2.20450675306175    5.21976117549500
H         3.49302948441240   -1.05744562826035    4.50207852819891
H         2.76451622384053   -2.59627035682889    4.05996160978240
H         3.63307429576074   -1.63435025770467    2.84752229009568
H         3.22134491143635    0.17858456730004    1.12511698665749
H         2.50872946533226    1.78526415971582    1.27602996236468
H         3.59734312641598    1.17360348626093    2.53169419046631
H        -0.22866801183329    3.07769219031851    4.34640788228505
H        -0.73303527960973    5.95294530227082    1.22079704024900
H         0.22559671285865    1.89713193876519    0.23295782293444
C        -7.61858992996552   -2.81607130530933   -1.04751352154911
O        -6.29268566935717   -2.60197566103658   -0.56211165950559
C        -5.95237425971063   -1.35751491461714   -0.25708735529077
O        -6.67590577894278   -0.39651533701547   -0.36313073843839
C        -4.54739051293778   -1.27545720327341    0.25662932223165
C        -4.07229360633326   -0.05779460138127    0.74958010729701
C        -2.78468345959272    0.01427628921460    1.24446086330867
N        -1.97410627951785   -1.04147461173665    1.27984982162108
C        -2.40698527626664   -2.21505709217011    0.76464728351696
C        -1.40844676113266   -3.24673470317689    0.75486683923945
N        -0.24862069431476   -2.98788216826535    1.25185749966898
C         0.76567832396690   -4.01486460844365    1.15063551194578
C         2.06077441278805   -3.46512781023618    0.55141733176849
C         3.00872973510896   -4.62928118586169    0.23356268813880
C         2.85587707214397   -5.78286403928051    1.23481559129349
C         2.44303339439901   -5.24463755425713    2.60065113602179
C         1.04197113874089   -4.62544740220722    2.53691482347350
C        -3.69261482788520   -2.36789790683595    0.24944494866100
H        -7.77215182443445   -2.26965037005736   -1.97921081172597
H        -8.34786946001969   -2.47291623501026   -0.31218623543384
H        -7.70658935227382   -3.88659157174728   -1.20826374351581
H        -4.71419550056341    0.80860884753857    0.73992764896714
H        -2.39178325637251    0.94832871690612    1.61624877364368
H        -1.63468115477057   -4.20307525867859    0.29451744158587
H         0.39605376727500   -4.79827426690274    0.47917004916677
H         1.83791398382644   -2.90819253196951   -0.35735855446748
H         2.51628163680742   -2.77674305130553    1.26027599521464
H         2.81509806216669   -4.99880658364449   -0.77427408267516
H         4.03352344341938   -4.25734436861682    0.25007996926507
H         3.79823157023152   -6.32509988480437    1.31632548249555
H         2.10486066055718   -6.49338047886316    0.88526960620339
H         2.44839443909401   -6.04869631265553    3.33705787570927
H         3.18051977850264   -4.50575806135163    2.91347377521177
H         0.28705857862623   -5.38606844408512    2.73706951032864
H         0.93665214699077   -3.84586312050143    3.28945735211910
H        -4.01148000344720   -3.31668447517079   -0.15014098748170
Cl        0.42347048430490   -0.57036907377143   -0.40324606363707
