66
 energy: -116.152981809767 gnorm: 0.000538731948 xtb: 6.4.1 (afa7bdf)
Ir       -0.65041866261874   -1.04875485112941    1.35808282138147
C        -2.10124376984463    0.81638220664105    3.80872753280707
C        -0.87289864027709    0.18815139258798    3.24938177183068
C        -0.40075141141065   -1.13016034911613    3.57690081032505
C        -1.01771173542935   -2.04002269429051    4.58186271651174
C         0.90677078879403   -1.28789422598661    2.99879501019584
C         1.86275512924728   -2.38137767755204    3.32035036591224
C         1.18999329194621   -0.13233099299063    2.21763681960180
C         2.50399227897341    0.18115935923377    1.59196942522009
C         0.07807737154937    0.79873840791448    2.37885925974628
C         0.11645967751734    2.22049934821258    1.99534534589672
C         0.00514416485000    3.19274546900170    2.98915978157999
C         0.09995284102804    4.52626406777698    2.63851827993319
F        -0.00373935734614    5.45810637304376    3.60822994821583
C         0.29805013320198    4.94248664815661    1.33417159762965
C         0.40023139295236    3.95335686968121    0.37129069659965
F         0.58975313079058    4.32214419758746   -0.91224320221356
C         0.31410209923816    2.60726320273138    0.67195436054570
H        -2.33565214760922    1.74288809157083    3.29255757762777
H        -1.93290426597295    1.04197702681659    4.86224412323244
H        -2.95036132657777    0.13856855399902    3.75450374656779
H        -0.73910635008063   -3.07286010270543    4.39434623099055
H        -0.65933434763995   -1.76857186530398    5.57537448421784
H        -2.10040733082191   -1.95537401292551    4.57891486809034
H         2.33066533816874   -2.15645466313396    4.27982178037905
H         1.35932362536681   -3.34068616883420    3.40685613445943
H         2.64216972731520   -2.45823632279722    2.56871046329926
H         2.87484279954322   -0.66374427777656    1.01647696222227
H         2.43069531766041    1.04531830817889    0.93908530864765
H         3.23022269094971    0.39640572137755    2.37629726863775
H        -0.12503524457527    2.92515079697661    4.02475713313718
H         0.37182126270013    5.98669352463093    1.08026881276788
H         0.37335612279302    1.87398979241103   -0.11741359485906
C         2.07401743591547   -8.03205706902910    2.25611978750536
O         1.01084786573710   -7.10911740867452    2.09266672673218
C         1.24089560221892   -5.94588433565149    1.46018793563254
C         2.46667850366837   -5.56093284933157    0.91590293442104
C         2.58061279961224   -4.32336149349276    0.29937742461101
Cl        4.10810270882998   -3.85765365915467   -0.38300376534263
C         1.51564582682944   -3.44580161245287    0.22367462781762
C         0.29045035784394   -3.84092037105323    0.76120910707687
N        -0.79236849500367   -2.95038101412683    0.69299862129894
C        -1.92294172092251   -3.32489220235845    0.18852358709995
C        -2.96308292846903   -2.34303861532245    0.14954668924791
C        -4.20914655905615   -2.53191942126399   -0.45688420192163
C        -5.10113965935788   -1.48603684980683   -0.48041596516002
Br       -6.80879638587521   -1.64895333197793   -1.29312298753013
C        -4.75273903103982   -0.24564763436785    0.10350991212635
O        -5.65774429796022    0.71884170215147    0.05247474459777
C        -5.37460600376781    1.99737920335820    0.60408097600418
C        -3.48846257051883   -0.15055702619662    0.69374978608093
N        -2.62783532201059   -1.16234206142793    0.71984353666597
C         0.14619395496816   -5.07935743546045    1.36801704036896
H         1.64535821191714   -8.87299110653612    2.79731115468082
H         2.45305150248893   -8.37601159202429    1.29070143755224
H         2.88750532236235   -7.59628815331687    2.84170830879864
H         3.32827292470127   -6.20455347954576    0.96320323609594
H         1.60501401284698   -2.49219741973430   -0.26953937294004
H        -2.06480249565537   -4.31710241298688   -0.22302754208860
H        -4.45550311812777   -3.47913295576101   -0.90860064818832
H        -5.21900652558316    1.92920162482328    1.68224348823015
H        -6.25824006378056    2.59800201220342    0.40051273799315
H        -4.50644764671524    2.44734383069269    0.11995062633133
H        -3.16067982858017    0.77151491602198    1.14848719920578
H        -0.79276108866207   -5.38435612998299    1.80071586331343
Cl       -0.22983288318520   -0.46718980219176   -0.91665764745438
