60
 energy: -112.303065666819 gnorm: 0.000501666726 xtb: 6.4.1 (afa7bdf)
Ir       -0.78703651554725   -1.01966669714439    1.19580526962628
C        -2.04200536660211    0.77233495355513    3.88240200451248
C        -0.88987144515881    0.16068842382128    3.17593606867935
C        -0.42547980244157   -1.17696474432026    3.40882060998325
C        -0.99557866306395   -2.11659504025321    4.41305152634902
C         0.82409392901336   -1.34020265343275    2.71565182021764
C         1.80758653696182   -2.43322170935251    2.93407277985487
C         1.09143327455992   -0.13166850020566    1.98891133298920
C         2.37680186675772    0.18232134955439    1.31474283110303
C         0.01522785565257    0.79776733465349    2.26430157847571
C         0.05896202570714    2.22938759220689    1.92664732864901
C        -0.01947113259732    3.17654423195629    2.94531750955229
C         0.06990645403925    4.51736381422771    2.62134535516692
F        -0.00334402324782    5.42611948313338    3.61375870979362
C         0.23284139341324    4.96287035639409    1.32206374262777
C         0.30966460851689    3.99663000378071    0.33435876073012
F         0.46854816806031    4.39144506691735   -0.94476148949535
C         0.23063155724000    2.64504606541640    0.60797976568955
H        -2.26699573631506    1.76158029281386    3.49869631677644
H        -1.79375550367671    0.85022112493347    4.94188884106899
H        -2.92955560231231    0.14792056615400    3.80775561382874
H        -0.70382639124073   -3.14134460551105    4.20306245772620
H        -0.61423267275365   -1.85233844047281    5.40028185682959
H        -2.07927899073441   -2.04984973050207    4.44574410964338
H         2.42353498680375   -2.16184786528034    3.79290920134796
H         1.32313582373553   -3.37951001467726    3.15517930225299
H         2.46353365335008   -2.55372769083078    2.07751276238531
H         2.64088982955283   -0.58271741291545    0.58862297666975
H         2.33178820753191    1.14269504074726    0.81137888110049
H         3.16546875550236    0.21448740378560    2.06709368486605
H        -0.12002628706850    2.88762949415003    3.97817203776241
H         0.29719313504189    6.01267790500556    1.09013258704717
H         0.26943510779380    1.93175564202554   -0.20029151170997
O         2.70033819588734   -7.87274259022684    1.28458320577472
N         2.93003494085020   -6.83150542822367    0.70075629338721
O         3.96995715838972   -6.58559201508915    0.12183659148238
C         1.90144210178370   -5.82443960193059    0.69292953459239
C         0.71473164842769   -6.05569343855827    1.38214878712550
C        -0.27917259219173   -5.09798048937801    1.35964507002938
C        -0.07733249077467   -3.90569470542192    0.66021749606401
N        -1.08654729500607   -2.93134693533583    0.60787773034465
C        -2.25878638622954   -3.27257874823291    0.17473496686754
C        -3.24145485107081   -2.24356894485329    0.04909937476263
N        -2.85390919090236   -1.01143259951920    0.46489331496822
C        -3.67459010206292    0.01063013893864    0.23777972698817
Br       -3.10113922785682    1.73932663636455    0.70511188339018
C        -4.93341042000204   -0.13018446575661   -0.33875961885125
C        -5.36615479894070   -1.38697033849095   -0.72859039509763
C        -4.49605684797518   -2.44579209188346   -0.54003111686487
F        -4.82938452504127   -3.67608326832521   -0.92683164204004
C         1.12296917844770   -3.67450057501377   -0.01509893718078
C         2.10933296145169   -4.63958917857031   -0.00805998770501
H         0.58626953149183   -6.98401722897570    1.91726683665385
H        -1.20346376609444   -5.26050080426240    1.89162255686763
H        -2.47985605452969   -4.28135612296378   -0.15707636020174
H        -5.55724424977118    0.73867217304956   -0.47580059135628
H        -6.33508882729764   -1.54276989633536   -1.17679336136615
H         1.24800135851666   -2.75440447970439   -0.56513594371649
H         3.03802050694726   -4.49583254030582   -0.53846898833358
Cl       -0.31980499291994   -0.49757650133966   -1.07483704870108
