72
 energy: -121.701543817623 gnorm: 0.000720226885 xtb: 6.4.1 (afa7bdf)
Ir       -0.80038321433421   -1.26886129930138    1.18534716895573
C        -1.85669111161233    0.54725764425869    3.91957850606749
C        -0.74625740812939   -0.08516513711825    3.15926801971262
C        -0.30692756252929   -1.43844429643220    3.35918168182420
C        -0.84316766926207   -2.36793650745750    4.39470734658069
C         0.90202930761995   -1.62679176605377    2.60661108502378
C         1.86368257063235   -2.75298605513555    2.76011265239504
C         1.14912623847724   -0.43078676901802    1.86183434092497
C         2.39147956505709   -0.14969004058454    1.08913223779344
C         0.12427264465748    0.53266500585795    2.21159962629855
C         0.18002832281060    1.95736323494951    1.86185814985600
C         0.13202338651674    2.91978818050838    2.86878124874855
C         0.22427157937193    4.25489214391667    2.52638198019318
F         0.17963800286478    5.17904393470069    3.50965903932503
C         0.36395283165084    4.68349410462425    1.21893806946607
C         0.41271089420022    3.70340274999109    0.24302969328291
F         0.54799999877807    4.08418415853457   -1.04536661543512
C         0.32932401813193    2.35660944584298    0.53457720789890
H        -2.10035900577147    1.52854030988695    3.52570200932558
H        -1.55278569391128    0.64962274129401    4.96209488228309
H        -2.74903991138367   -0.07493300076029    3.90254544600988
H        -0.59542992144455   -3.39886183250787    4.15865410937900
H        -0.39739728413153   -2.12409087860559    5.35964258986799
H        -1.92126897222315   -2.27194251924658    4.48910306139906
H         2.54131605527270   -2.51352824461270    3.58075623492903
H         1.36044935326300   -3.68521979909060    2.99932246377376
H         2.45402974709549   -2.89208004045709    1.85958093521554
H         2.40928355027071   -0.71092688257355    0.15674735594475
H         2.46128901606326    0.90724943447012    0.84808978047117
H         3.26023655977896   -0.44244446230180    1.67641489603273
H         0.05003290430874    2.64433742202528    3.90692101483543
H         0.43084671035393    5.72973331188814    0.97209302776222
H         0.34175488486931    1.63224604351392   -0.26471955485135
C         5.98979450288140   -7.83916704968977   -1.11021046707457
O         4.78851790103920   -7.97822321434141   -0.37591595689765
C         3.90453940713239   -6.95619853710910   -0.34361013107611
C         4.09338710014336   -5.71761434073861   -0.99668833127501
C         3.14383070304365   -4.73909528122218   -0.90974686451997
C         1.95690851010992   -4.93298850557578   -0.17174858920003
C         0.97295070880894   -3.93725622801112   -0.06538447998147
C        -0.19218215195961   -4.17350601192054    0.63352850769499
N        -1.18231274134330   -3.18804427544048    0.67023012028580
C        -2.41766567674748   -3.51167731531647    0.44792394658236
C        -3.38637716886537   -2.46488810909945    0.40221226601614
C        -4.71189718614312   -2.65407002566849    0.01170107438044
C        -5.54687902109372   -1.56748388314834   -0.14173017944520
C        -5.03243070672750   -0.28602566103196    0.07821906903674
O        -5.68370484586822    0.86339776453492   -0.05565232190413
C        -7.04540432339989    0.85622299720223   -0.46276925087225
C        -3.68497915748584   -0.18580323547312    0.48903363737944
Br       -3.02468195780819    1.55895269914416    0.75620063297354
N        -2.89304671940994   -1.22570308086134    0.67386804592922
C        -0.39225464096853   -5.41802255816486    1.27977060697220
C         0.56583319861825   -6.38419526860419    1.21448148653784
C         1.76170270251261   -6.18263648224160    0.48332950250263
C         2.74793563451125   -7.17012302068754    0.38541165115878
H         5.79070598248058   -7.67662643653564   -2.17339196432161
H         6.51710383676361   -8.78247431148716   -0.98234553503801
H         6.60499276041566   -7.02421302791236   -0.71824353655847
H         4.98830199308240   -5.53923114584210   -1.57045479650345
H         3.29463981910833   -3.79672234040924   -1.41435350777097
H         1.10082216247453   -2.99510294639909   -0.57763412283656
H        -2.70145137966850   -4.53056219463913    0.21206279644700
H        -5.07009345861772   -3.65173359125688   -0.18256886602515
H        -6.57068008966145   -1.70635080338918   -0.44803387348881
H        -7.33852493848528    1.90310512260402   -0.49615611911549
H        -7.15411124476993    0.41243913982333   -1.45471198478923
H        -7.66585868843354    0.32346060005713    0.26069678791994
H        -1.29610669572917   -5.57605807365898    1.84773977289136
H         0.42302134593468   -7.32741926595981    1.71872852514981
H         2.61488028731618   -8.12112025653486    0.87652145832073
Cl       -0.50733015048469   -0.76404318007208   -1.12196270080793
