85
 energy: -134.848128867620 gnorm: 0.000578282820 xtb: 6.4.1 (afa7bdf)
Ir        0.17025934236922   -0.01763192427298    1.80148480725220
C        -1.19296971349522    2.10134377543710    4.12189818425240
C         0.00605896691644    1.39808524174693    3.58279782004320
C         0.46745638281926    0.10081945496650    4.00393194029145
C         1.75720735474668   -0.12171317726669    3.41027151797565
C         2.68873369775753   -1.21857278988727    3.79263733255853
C         2.02952304511360    0.95588688357193    2.52182470600343
C         0.94423615481041    1.92369371196900    2.65249673260313
C         0.98792770474403    3.31490936550284    2.17506070216404
C         0.95779259969991    4.34417010532489    3.11631314186618
C         1.04080046465902    5.66266423229055    2.71700627337752
C         1.15391642368914    5.99496119601498    1.36809499200514
C         1.24447992067172    7.40089978178898    0.94624126078207
C         2.13714048527759    7.78634534256167   -0.05185182794270
C         2.22659473991592    9.10956226502842   -0.44351467085651
C         1.42105248961920   10.06800282103315    0.14986018718449
C         0.52696217005831    9.69521539455110    1.14032714460732
C         0.44139374616981    8.37372772117732    1.53819370406880
C         1.18030755707919    4.96309567258918    0.43144384843292
C         1.10074210259414    3.64234995735565    0.82675003744783
C         3.32560789981825    1.22021461496963    1.83304949996882
C        -0.13406255367735   -0.73206245854530    5.08350124560800
H        -0.97620299880816    2.45267539605144    5.13131080608560
H        -2.04927265859848    1.43334106074605    4.18355941394466
H        -1.44470344539187    2.96134555686837    3.50686078813151
H         3.27890369693443   -0.89042471647581    4.64907342768530
H         3.37108465345522   -1.46533855255793    2.98388016768905
H         2.13776270794286   -2.10964551132964    4.08126591877805
H         0.89665297520633    4.10670921442645    4.16745412502085
H         1.04045690833897    6.44572543600681    3.46060066518297
H         2.77927544108963    7.04719706767870   -0.50837407803729
H         2.92815708507580    9.39600309985714   -1.21382377642546
H         1.49021368681985   11.10109431706786   -0.15779243871091
H        -0.10654354517898   10.43838123440182    1.60269138345825
H        -0.26914731575713    8.08867397121768    2.30044666774583
H         1.24578253643735    5.19987596977183   -0.62015735380767
H         1.09383803254930    2.85875918754624    0.08532658738226
H         3.81979420989979    0.29146582379692    1.56060685352126
H         3.17452729106084    1.81816651844548    0.93853766401346
H         3.98009188482452    1.77613612271953    2.50568435507556
H        -1.13465825721445   -0.39042792576486    5.32905851800431
H        -0.18790159119352   -1.77501828352535    4.77919997661797
H         0.48536835849406   -0.66997796877101    5.97806943964132
C        -0.58907536451668   -6.25061050143929    3.85341608934636
O         0.36533093907923   -5.69428248523904    2.94878088426551
C         0.39638703736001   -4.37305383989082    2.82499855500984
O        -0.34706549725202   -3.61942751581561    3.41525924703286
C         1.46784372302118   -3.92548846324828    1.89380175575192
C         2.64006708612485   -4.66959715993543    1.80325229241675
C         3.70344107558380   -4.22883043502373    1.01871787152503
O         4.87123814994715   -4.87642494035311    0.86845028413391
C         5.06421818118696   -6.12121487063759    1.51713673058839
C         3.57964465422378   -3.00976870268380    0.33475162246788
C         2.42741004849283   -2.26690299676566    0.42654033674141
C         1.34921308603431   -2.71504603293295    1.19494401197724
N         0.17761543135088   -1.95305312871504    1.22185840501130
C        -0.95305905794121   -2.45761223026973    0.84668691032955
C        -2.08879989087075   -1.59325814234042    0.87891395922696
C        -3.36837251431199   -1.93606831447729    0.42856154004036
C        -4.36699190094094   -0.99151956341016    0.44135030595951
C        -4.07703017804806    0.30571039387459    0.89727981235265
C        -5.06526139705515    1.34971096428676    0.91509420533820
C        -6.39563169489428    1.35660609360239    0.54576353786027
C        -6.86291859509809    2.66451879143737    0.77093551751498
C        -5.79563520201412    3.36550234123548    1.25850820257783
O        -4.71490878836682    2.58660229108653    1.34940644736814
C        -2.77325303344243    0.56496776093107    1.34137409462419
N        -1.81784447953242   -0.34765332230887    1.34487399077173
H        -0.20684401840201   -6.19220613062740    4.87382795469525
H        -0.71865890633353   -7.28766433723003    3.55652076861305
H        -1.53139331899112   -5.70452414719396    3.79173351131715
H         2.70376536463717   -5.58656536660597    2.36471268034734
H         5.01817819195138   -6.01192414313202    2.60360460017041
H         6.06147610643170   -6.44571069723732    1.22768479426445
H         4.32998641474107   -6.85939299763739    1.18516688744352
H         4.40866187727423   -2.67551978586075   -0.26770732928396
H         2.32285708032486   -1.34003546889851   -0.11656193430155
H        -1.03031090726537   -3.47413729516556    0.47777612318004
H        -3.55064777214354   -2.93465050608822    0.06612093186777
H        -5.35715336456139   -1.23640699098258    0.09490919215904
H        -6.96717831993168    0.53649750427531    0.16414476555500
H        -7.85139574172885    3.03492578626578    0.59586559904835
H        -5.69342973363840    4.38804826288779    1.56430621686264
H        -2.51707966942013    1.55394084025351    1.69183914346184
Cl        0.33854726161919    0.47293827596958   -0.53736220634873
