66
 energy: -104.853074142453 gnorm: 0.000635315563 xtb: 6.4.1 (afa7bdf)
Ir       -0.42547634388742   -0.64939252507363    2.21191513354176
C        -2.39002676583504    1.06249830702297    4.45855897782570
C        -1.05661496700103    0.51418574877738    4.09711812454652
C        -0.60529531690416   -0.79951672477563    4.44658838730598
C        -1.36414346842153   -1.76712675536706    5.28985803377205
C         0.78397228086038   -0.90303278107019    4.08015262546200
C         1.74669521147164   -1.93822273881110    4.55675818806412
C         1.16947520828172    0.32694025414828    3.45506419525230
C         2.55895844386975    0.70108065733941    3.07849072339659
C         0.02367420037993    1.20389717632315    3.45632099273410
C         0.10658836328922    2.63894544971169    3.15962036368576
C        -0.34055888631348    3.56803446592774    4.09683593012346
C        -0.20684922327500    4.91628216267297    3.82425840851494
F        -0.64016500266884    5.80692177939943    4.74004448671548
C         0.35210462643056    5.38910721087592    2.65066756078180
C         0.79115791627474    4.44086713408606    1.74257655258948
F         1.33146648783810    4.86473625603496    0.57969819262428
C         0.68680633626546    3.08338702604258    1.97194252326130
H        -2.57932263271900    2.00678403003132    3.95896378320742
H        -2.42684481206840    1.21723876234392    5.53778325855142
H        -3.18239129736216    0.36215112331274    4.20463714404539
H        -1.05641516602811   -2.79142763943503    5.10049683114809
H        -1.17502604998065   -1.54521329029688    6.34089768236470
H        -2.43286057823337   -1.68329701894052    5.11592156163066
H         2.30455453113476   -1.52024108567104    5.39634238086225
H         1.23622464716413   -2.82783854650959    4.91253447360471
H         2.46344455918155   -2.20567033042010    3.78493450099721
H         2.77448049820484    0.41859277867864    2.04835715055531
H         2.69267870121668    1.77723827751505    3.15893172944184
H         3.27317640770913    0.19591498157646    3.72372896679256
H        -0.76128004132954    3.25966816704109    5.03897767472518
H         0.44475836941297    6.44420573497725    2.45459774814193
H         1.02278397786637    2.38346581317163    1.22335136568754
C         4.29891643222319   -3.41492383315976   -0.08551489181852
C         3.93482618454091   -4.37981002825189    0.73832996972764
C         2.62022180397047   -4.51296577174720    1.44870437340349
C         1.61857367555178   -3.40651690424935    1.13218285599294
C         0.31042445514191   -3.61681548893127    1.90985558557859
N        -0.62448298248936   -2.56358916441343    1.59722491920599
C        -1.60062076898216   -2.83390075200109    0.80007944792841
C        -2.45522262930656   -1.76513174445201    0.37866649616151
C        -3.45480498547234   -1.92554201317999   -0.58081440119589
C        -4.18928880129667   -0.82217605710974   -0.95847598737093
C        -3.87774004713916    0.42398685235253   -0.40593969366096
C        -4.71801030634271    1.50808741306828   -0.74197815537970
N        -5.46757168327149    2.33068208695104   -1.01976243272576
C        -2.81230036459470    0.52969442731256    0.51260391955300
S        -2.24977969650122    2.02529150371825    1.20153372870231
C        -2.50903783293215    3.28178638080505   -0.08106638779823
N        -2.16114547530582   -0.56525860111351    0.93066567624069
H         5.27232118118348   -3.41299631069467   -0.54646982579139
H         3.65811795131680   -2.58957520439424   -0.34245502071297
H         4.62714477356762   -5.18417819934097    0.95513871492249
H         2.19292498118071   -5.48360717101664    1.18052833476639
H         2.81932157639967   -4.54304167843354    2.52398032444871
H         2.03849421610591   -2.43302811543679    1.38670055276858
H         1.39938764803461   -3.40443557530601    0.06407407953695
H        -0.11819467833520   -4.58757050486385    1.64317046813079
H         0.51893511283358   -3.60349389267349    2.97905735059254
H        -1.76010890876352   -3.83422002708596    0.41196924068168
H        -3.64296393897115   -2.89582278461441   -1.00867399929054
H        -4.99975172472214   -0.89986966548488   -1.66686898316988
H        -2.35036114423556    2.84373204364409   -1.06062000267355
H        -3.49594666209500    3.72489810376793   -0.00256463661449
H        -1.74783641177200    4.03334146841129    0.11072593383459
Cl        0.68629683557781   -0.15145465268812    0.18331979405324
