66
 energy: -102.003758261309 gnorm: 0.000771122755 xtb: 6.4.1 (afa7bdf)
Ir       -0.93816874821851   -1.52735533282021    1.31842595672473
C        -2.23457034303930    0.85041894878863    3.42268062636336
C        -1.06621875763033    0.07040533827578    2.92283950911883
C        -0.61892623701080   -1.18063470435301    3.48839985838396
C        -1.21929755859509   -1.84444132649588    4.68189748078444
C         0.67274549000121   -1.48349181980237    2.92736955539669
C         1.59396272325078   -2.54300190774271    3.42480834683710
C         0.95427180311733   -0.50869395695042    1.93338166645412
C         2.23061587313812   -0.32370677299872    1.18524474578321
C        -0.12829745439953    0.46365909722290    1.93477924488069
C        -0.08374584210666    1.74736775614654    1.17663826014596
H        -1.96781944367185    1.30402653070201    4.37774900047487
H        -3.10017289105137    0.21303787179747    3.58788410594514
H        -2.50386748009247    1.64757885541219    2.73588849754350
H        -2.29957151472674   -1.72991830582558    4.69450314236140
H        -0.97565450349418   -2.90301455166393    4.70432445106457
H        -0.81909071325365   -1.38615408708355    5.58719429377945
H         1.04695231429882   -3.42508636738290    3.74594467807658
H         2.30845560428437   -2.83802286493841    2.66226780268043
H         2.14444650209118   -2.15230042442957    4.28141288018287
H         2.03230922027124   -0.11207880356055    0.13644832448864
H         2.86193613539795   -1.20405608043661    1.25559419843671
H         2.77135114251799    0.52642307623535    1.60147668553519
H        -1.02634941223449    2.28254001078706    1.23743196200065
H         0.14368693366557    1.56207870449598    0.12898178956255
H         0.70304710758262    2.38186378792533    1.58535555300978
C         4.56970999579639   -6.57247990133964    0.43202128434497
O         3.31480591289620   -6.93684268329172    0.97346469408971
C         2.30323241344479   -6.04790514858034    0.93721466181679
C         2.37384921059452   -4.76631178618258    0.40612303797909
C         1.27502423666703   -3.92551894059075    0.42736832060866
C         0.06856252667342   -4.36704487425706    0.95793486604010
N        -1.03942141411070   -3.52355410204848    0.92447634916472
C        -2.21564649201318   -3.98976704240502    0.62451752289643
C        -3.29155781120181   -3.05614810181200    0.57063485383835
C        -4.59989878442672   -3.36359337770122    0.17768424141833
C        -5.53216478173370   -2.35865837697614    0.09030006431812
C        -5.14985537648737   -1.03721195568825    0.38322885007577
C        -6.09093640270083    0.04674836685319    0.27879064584243
C        -5.95859290661712    1.40697100854019    0.46940453600095
C        -7.22410333752991    1.96830621001609    0.21552038857513
C        -8.03965626061259    0.92179247265563   -0.11088616873819
O        -7.36988731946472   -0.23272838051852   -0.07571228485516
C        -3.82711784647050   -0.81423661283144    0.78008263820252
N        -2.93447635259123   -1.78457727976592    0.88607139804982
C        -0.02188538522621   -5.66018318968907    1.49492040013452
C         1.07682524955253   -6.49646097368599    1.50243737993172
O         1.09947949717476   -7.74853019172720    2.01188413669619
C        -0.09252993404434   -8.28867110844365    2.54707137587970
H         4.49082887416001   -6.33926339087216   -0.63352800078265
H         5.00112156600400   -5.72200274054030    0.96719858164590
H         5.20598592440832   -7.44509014685939    0.56527725039788
H         3.28977966271636   -4.41523597875220   -0.03952404199619
H         1.32678733275627   -2.94523740504058   -0.01907672748417
H        -2.36783734341105   -5.02881785518693    0.35945783184336
H        -4.85464655282054   -4.38324976668962   -0.06123240333974
H        -6.54675939209665   -2.56251951151097   -0.21194756609225
H        -5.07386235579635    1.94030062874865    0.74687653652248
H        -7.49449401652696    3.00244904268850    0.26633722943308
H        -9.07801587403119    0.88230584356824   -0.37495058064404
H        -3.49106355569266    0.18394605327281    1.01176011014064
H        -0.95209970785420   -5.97822149329438    1.93622115757546
H        -0.43390568504732   -7.71853595102063    3.41526084876791
H        -0.88251928042160   -8.32926665113786    1.79221755923906
H         0.16312433241714   -9.29973401341677    2.85702919636028
Cl       -0.68425451644986   -1.14799636577695   -1.03173478993091
