61
 energy: -84.061352671711 gnorm: 0.000677648277 xtb: 6.4.1 (afa7bdf)
Ir        0.26559565114262    0.51768609961170    2.03150729409475
C        -2.08848344986394    1.89569695434377    3.79796500232887
C        -0.70521477590546    1.35522857406897    3.72807798838042
C        -0.30985662997698    0.01690481240964    4.15956654329331
C        -1.24047022201450   -1.03436706053107    4.66389371470481
C         1.08483174427236   -0.03572216149989    4.07385171028385
C         1.95829715630267   -1.17929436384904    4.45379120316716
C         1.59241342708330    1.30966335562926    3.74415184233465
C         3.03953670830401    1.65885406174338    3.73760723608423
C         0.50708297594581    2.16907638806663    3.60312316318019
C         0.50539319548711    3.64876719248534    3.41840655935690
H        -2.35421993556582    2.04277520874734    4.84575946246412
H        -2.80483251072119    1.19641213025041    3.37155788097680
H        -2.15898558662868    2.85201566888132    3.28944401854229
H        -2.20465063432794   -0.97340525208649    4.16792404674587
H        -0.83178277610465   -2.02869873068614    4.50886902068088
H        -1.39723684473097   -0.89264181146149    5.73328823884911
H         1.41696649881180   -2.12014177501698    4.39569381995448
H         2.83972152894868   -1.23696892580008    3.81856881666302
H         2.29991707354179   -1.04628795947824    5.48134665459102
H         3.21117683263956    2.62870604606713    3.27916828222982
H         3.62518614241761    0.91227216186799    3.20417284614602
H         3.40818879108055    1.69323927612126    4.76383485292549
H         0.09194259713855    4.12489927412518    4.30665238264462
H        -0.10429445492642    3.93326253659423    2.56331774827758
H         1.51225988553177    4.02411163903080    3.26481188054926
C        -2.54475392298187    4.11997220594074    0.36481305215330
O        -1.28677317793740    3.45723080479894    0.31275587906660
C        -1.20449834313426    2.15194544097980    0.02914918345685
C        -2.32527897931044    1.41800248490634   -0.35958808830401
C        -2.52402848922067    0.05287933670281   -0.17543895308658
N        -1.62765252057277   -0.80133422593571    0.21475631226957
C        -0.53608498833238   -0.85818528123136    0.82377335997682
C         0.45262806436591   -1.90953320178815    0.68812101881585
N         0.13040613051319   -3.12743784831727    0.63716457235220
C         1.12902420059942   -4.14816189751936    0.60289285161630
C         0.83032640335343   -5.07827328681100   -0.57829438482240
C         1.80866747580214   -6.24853188143312   -0.60003641846011
C         1.74182676070704   -7.03224219234152    0.70794188332522
C         2.03231086604219   -6.11226968463706    1.89022356972798
C         1.05375565219407   -4.94301909005390    1.91384050306864
C         0.14818840802371    1.65570610780937    0.24784949098194
H        -2.97143413700307    4.22853099909254   -0.63417300048035
H        -2.33253153026901    5.10700915531276    0.77079970804535
H        -3.24368510516156    3.58801463843474    1.01220260745604
H        -3.19150482804249    1.96876484191849   -0.69135660834675
H        -3.51084604598080   -0.35608938484746   -0.34272066842485
H         1.50911973544395   -1.56737543560992    0.70812137430878
H         2.14645674699141   -3.72727590469036    0.49297899247562
H         0.89633648874495   -4.51355962283198   -1.51067679260636
H        -0.19181415098046   -5.44492522649570   -0.47736912831214
H         1.57199807022269   -6.90376160471280   -1.44059814331096
H         2.82477055056430   -5.87274224727789   -0.74717550416634
H         0.74557183365760   -7.46539429434514    0.82032961690135
H         2.46300660698456   -7.85190786088559    0.68799432084759
H         1.95480169146507   -6.67051208663242    2.82520841990428
H         3.05436941679750   -5.73333658570976    1.81052374545924
H         0.03417784953027   -5.31029393898927    2.03607950762759
H         1.28127547437637   -4.27975728162046    2.75116202987812
H         0.82601658927351    2.50712598262780    0.36064126338430
Cl        0.78560281537602    0.69483672658392   -1.13763878222312
