65
 energy: -103.797149805909 gnorm: 0.000143550803 xtb: 6.4.1 (afa7bdf)
Ir       -0.49473096783033   -1.58997577555544    0.61620462922411
C        -0.47044194681449    1.00752525997697    2.98465466575358
C         0.22347648612491   -0.02710739964318    2.17442185682578
C         0.43680177638460   -1.38251605817522    2.63298905986371
C         0.00246370298321   -1.90802260623698    3.95844396610408
C         1.39867308204271   -1.99951373206281    1.76407863337144
C         2.14827541857495   -3.24931534884037    2.06181776670580
C         1.65456388861869   -1.08901168962049    0.68758222825772
C         2.68497170980170   -1.23678550395083   -0.37487703746247
C         0.93135339294793    0.14314954736310    0.95718942273365
C         1.14770567996054    1.40630764329992    0.19669958394681
H         0.11329710017110    1.17437255504717    3.89074821043276
H        -1.46215754648806    0.68216853100990    3.29059733336984
H        -0.55772652858947    1.94691034451326    2.44981052096546
H        -0.98092892616334   -1.53261815448742    4.22766788772509
H        -0.01672866110875   -2.99419759217101    3.96377169134686
H         0.70921896108660   -1.57884762954863    4.72125164287349
H         1.51665833179010   -3.99739131678711    2.53277872430219
H         2.59016803144120   -3.67488253116051    1.16627818399476
H         2.95300229205237   -3.00139789431671    2.75526448432941
H         2.33529388302628   -0.80888473333288   -1.31134964962075
H         2.94583763573683   -2.27851806642644   -0.53845767933959
H         3.58320216029084   -0.69703515223819   -0.07315497106873
H         0.46792550990464    2.18841353402233    0.51865499566434
H         1.00540560536459    1.24127629129935   -0.86897618294387
H         2.17250807461958    1.74373976124945    0.35021034042010
C         6.99005447101679   -5.99769428788109   -4.26623416521483
O         5.71443805918631   -5.43525446497182   -4.49451415643795
C         4.77717197148894   -5.51759258657526   -3.51551658283242
C         3.53310059534283   -4.95141060653996   -3.81081294906966
C         2.51318110764154   -4.97814467365621   -2.88751962484007
C         2.69211987189688   -5.58100493164950   -1.64037617004099
C         1.59961547956430   -5.62364102434207   -0.65974380775728
C         1.41293324782218   -6.73779062893044    0.16253335297619
C         0.38444818028817   -6.77162368717402    1.08823900573281
C        -0.48778840370883   -5.70585092654369    1.21113619267324
C        -0.31012545838025   -4.58497756442447    0.39825289048803
N        -1.17053080071734   -3.48392761659015    0.48382926553703
C        -2.45161119212622   -3.68333343447925    0.52515293343891
C        -3.29368691205934   -2.53217890677454    0.51070680507825
N        -2.64638231407670   -1.34011564002813    0.54114691358812
C        -3.36361962151259   -0.23698092719772    0.34167033871884
Br       -2.45314276533137    1.39524535356207    0.22197078797794
C        -4.74428915554286   -0.23114522068128    0.19736723831078
C        -5.43225285764952   -1.43608789927386    0.22542261645821
C        -4.68651481527128   -2.58944831142290    0.36509024797290
F        -5.27863530451389   -3.78783496494641    0.34980335963828
C         0.73161492198944   -4.54448417310146   -0.52467923328552
C         3.93337928753710   -6.14142814835119   -1.35308436909429
C         4.96815339206121   -6.10949637168571   -2.26981886614655
H         6.92487212882125   -7.07529507019040   -4.08930235205676
H         7.55622028843194   -5.81544751948664   -5.17767257173381
H         7.49298720614124   -5.51479245267509   -3.42334356110501
H         3.39480143373212   -4.49897885352897   -4.78002269171806
H         1.55713769791953   -4.54940546226395   -3.14613899274293
H         2.06808595851758   -7.58859508253956    0.06208035284894
H         0.25764599882061   -7.63820997146297    1.71838061632713
H        -1.27667317679455   -5.72159813736576    1.94699643725817
H        -2.88364941715997   -4.67643391491844    0.48047452484521
H        -5.26599801405023    0.70293165683783    0.06426908455656
H        -6.50458371721493   -1.48196225118813    0.12059968300738
H         0.83841389942725   -3.66956363559870   -1.14768638343915
H         4.10943562771110   -6.59219530098122   -0.38795877467961
H         5.91632521560607   -6.54904507990207   -2.00465804398200
Cl       -0.72024326195060   -1.33112056722667   -1.74918365913630
