80
 energy: -132.588436955314 gnorm: 0.000574762828 xtb: 6.4.1 (afa7bdf)
Ir       -0.52438607902705   -0.46937146047808    1.83468038966776
C        -2.46759264929434    1.43445945986833    3.96139425619861
C        -1.17823557310703    0.77038275942319    3.63622361386877
C        -0.86807730848280   -0.57459704559487    4.05308924963424
C        -1.77213699606723   -1.46177571515742    4.83920922612238
C         0.54071149924556   -0.77452815828725    3.89934982676530
C         1.29297642576877   -1.86584029234929    4.57469205401384
C         1.06563122253752    0.34885634232586    3.19358944116842
C         2.50757342483005    0.62221003764339    2.92499356383531
C        -0.00573854018921    1.33763790146636    3.06601873027727
C         0.22165414288754    2.73611759238021    2.68218932817043
C        -0.28960614229238    3.77618441654541    3.45827264621568
C        -0.00771674730933    5.08136508104449    3.10412828490869
F        -0.52950646483052    6.07755982665349    3.85497483525384
C         0.78386364430094    5.41419843040467    2.02134984516391
C         1.27759919005277    4.36215686684970    1.27172477382028
F         2.05187153126305    4.63624251111827    0.20253015787731
C         1.01102373638929    3.04161971710784    1.57395363543977
H        -2.58351625256164    2.37111416191609    3.42768638955974
H        -2.48626694387637    1.63302567278075    5.03441440287470
H        -3.31069458436334    0.78474073057057    3.73872101694301
H        -1.46292268467305   -2.49979611534976    4.75658010348287
H        -1.72676123228544   -1.17777492498933    5.89130189664892
H        -2.80338225213965   -1.36817438958830    4.51072730358942
H         1.13048960404705   -1.76858082215429    5.64911214498567
H         0.95232095048801   -2.85941287720762    4.28902166948152
H         2.36080656611216   -1.79801498320491    4.38778728780388
H         3.14096511795571   -0.00105277772600    3.55043170500805
H         2.75917788778363    0.42507140993592    1.88402844000774
H         2.73032582828459    1.66829015888625    3.12573652941194
H        -0.87184393193700    3.59069019864909    4.34473701573107
H         0.99032459683947    6.43777700431152    1.75994581384635
H         1.38610067008152    2.26613396281410    0.92666817616764
C        -3.09920641291928    8.00005020338744    1.42285504842036
O        -3.30742627524524    6.59184507198214    1.36296564000511
C        -2.40002724043512    5.86558551793439    0.70915290569546
O        -1.43291963856889    6.34040315184600    0.15466379627998
C        -2.70146830091729    4.41166635180393    0.74780208461400
C        -3.81985470011284    3.91340671462552    1.41417108795063
C        -4.05645154163454    2.55430595825678    1.44008424038904
C        -3.16898975038390    1.66435033184239    0.82637200607897
C        -3.45862487748730    0.22316238766505    0.81625154482767
C        -4.77259123546444   -0.18413227100989    0.55922589427015
C        -5.08622391451100   -1.52697534860849    0.45313939005262
C        -4.05891358308982   -2.45119925649850    0.54517796769207
C        -2.77162069721460   -1.99187135171152    0.80114381487748
C        -1.61368867373545   -2.83975311621232    0.74707809187750
N        -0.46498831769727   -2.32923282127466    1.03077928654809
C         0.69857828932790   -3.07216386713825    0.60875330498293
C         2.05951613263920   -2.81051058659114    1.26081585558439
C         2.28668404612397   -4.34052682316493    1.35189366630687
C         2.71622669311567   -4.84285264461876    2.71022069244872
O         1.99623902819515   -4.85913247847634    3.68099979430029
O         3.98209059281477   -5.23676497409244    2.69300693114360
C         4.57378853898750   -5.71656136832096    3.90241864365310
C         0.79976135194635   -4.55421892575466    1.01852437596692
N        -2.48164678284830   -0.67795522199764    0.99154790738711
C        -2.06313596443800    2.16853725772130    0.14482146639568
C        -1.83872693171874    3.53106089281860    0.10090267827497
H        -4.05577443666839    8.43663346842785    1.69663564051770
H        -2.76042195397961    8.37489250486662    0.45541962742819
H        -2.34553518009015    8.22903386510566    2.17902774451846
H        -4.49375906533842    4.59549447275933    1.90642323707618
H        -4.91839447100035    2.18029234881083    1.97093259395038
H        -5.53043278296163    0.56912157569349    0.41786617712403
H        -6.10158966955577   -1.84185214816742    0.27166674980104
H        -4.23554701162014   -3.50679260350950    0.41831711625027
H        -1.70408172409706   -3.84171719533046    0.34187236996548
H         0.76665178513554   -2.94412148143014   -0.47645803906433
H         2.77169783752541   -2.26311080169055    0.65162159157018
H         1.97763353685261   -2.34336897606239    2.23393952463462
H         2.97565185583352   -4.71132028705419    0.59587656273593
H         3.88658439358844   -5.57193584523825    4.73695484406133
H         4.79634905355936   -6.77604923738372    3.77853927666481
H         5.49545494906186   -5.15900398720438    4.06048184254432
H         0.58337412397937   -5.29147420749127    0.25113928851075
H         0.22887836223237   -4.76971206816083    1.92047009432117
H        -1.39940731316633    1.50038155662427   -0.37854486234715
H        -0.99690535345254    3.93360951496508   -0.44002693148633
Cl        0.60458957322778    0.05989806642156   -0.20461731887722
