79
 energy: -111.154369397009 gnorm: 0.000496938155 xtb: 6.4.1 (afa7bdf)
Ir       -0.98567287866399   -0.53587830548577    0.40370716621335
C        -1.85838402357561    1.98479689210247    2.76941100734373
C        -0.60931410292576    1.17995012966104    2.56274195171601
C        -0.61713914499554   -0.30526320862679    2.53241617415139
C        -1.58714805177005   -0.99681904575174    3.45696713599257
C         0.82379183838576   -0.69087236438802    2.68531792496510
C         1.31158795091966   -2.09510212815846    2.80044225816036
C         1.56685025737596    0.43397881979693    2.74747275195335
C         3.04647353374550    0.52139431021455    2.88124388611326
C         0.68471966086326    1.60692848853124    2.66759265534577
C         1.22311066467302    3.00139003941533    2.72234628298161
C         0.92877567874823    3.77413765066310    1.42842119532716
C         1.60814851004281    5.13954107652817    1.46648745377166
C         1.13673928187186    5.93979929016332    2.67844440755293
C         1.40162751762960    5.16800924454157    3.96928047975480
C         0.71743772073651    3.80420809890966    3.92927692550679
H        -2.73491032920213    1.46754729438559    2.39354175597742
H        -1.79200961358021    2.95746823575188    2.29230956718688
H        -2.00288750777987    2.14516668310532    3.83820163451633
H        -1.60079739618720   -2.07240571756336    3.30944180424247
H        -1.24448821324658   -0.80825106478321    4.47525923523486
H        -2.59383116632451   -0.60340520389249    3.36567038184530
H         0.49922587911258   -2.77022014032484    3.04420012256342
H         1.76755727386039   -2.42155590196579    1.86640361630631
H         2.06553110618010   -2.16462521989706    3.58168535277128
H         3.48504049657207   -0.47028133277404    2.93660459530192
H         3.47099911601904    1.03007684696046    2.01529382498084
H         3.32629665741195    1.07956942788167    3.77456154700302
H         2.31093786517543    2.93575671561264    2.81513950018573
H        -0.14573976582208    3.91542402468896    1.31383327825793
H         1.28953944322006    3.19822683583118    0.57295142407118
H         1.38623168183493    5.68940838437227    0.54874914696596
H         2.69179282895857    5.00819443534462    1.51868717137223
H         0.06621887557384    6.13971589267997    2.58893103312277
H         1.65228154861566    6.90212911843966    2.70925204510865
H         1.03470334461577    5.74020057260998    4.82449698025646
H         2.47912532378652    5.03632818541566    4.09724971935395
H        -0.35953203255653    3.94963944645315    3.86218845099650
H         0.92947549399957    3.25300779455484    4.84759374634052
F         2.57898483988120   -6.24540591060488   -0.89774469944400
C         1.65055270697859   -5.32727042663119   -0.56179113386874
C         1.47731522283293   -4.21741772878201   -1.37191103616943
C         0.52980180379244   -3.27641462276078   -1.01978563081805
C        -0.24064090686045   -3.44674163949381    0.13088971404756
N        -1.22061819185245   -2.48994674966279    0.45421979439446
C        -2.39403003298529   -2.88634398570276    0.86746606972880
C        -3.40633717287538   -1.89409838456440    1.04246709711724
C        -4.69211742894211   -2.16640961708168    1.47704250356104
C        -5.58235352305531   -1.09912957437800    1.56970661177503
C        -5.21122999207769    0.13203946138187    1.09061525453808
C        -3.92633350977288    0.33304585163322    0.51705816818572
N        -3.63290690148223    1.46792162277213   -0.14178604064508
C        -2.31716145689386    1.75434462209256   -0.69180345949529
C        -2.14942714142477    3.25345499177415   -0.91455351880280
C        -3.10818800371873    3.74854075824438   -2.00109317431726
C        -4.39272655058516    2.91491190512011   -1.97158015044941
C        -4.68166102284042    2.39316081850691   -0.56572161362521
N        -3.00024899030664   -0.64591479003289    0.65674436125292
C        -0.05206723907572   -4.57998585626896    0.92647869826630
C         0.89875023607559   -5.52155805850681    0.58545099642111
H         2.07918404251964   -4.10048162931252   -2.25868659888582
H         0.38333695811377   -2.40436358714678   -1.63623291217214
H        -2.62921322760041   -3.93817554814842    0.97152977447276
H        -4.97041923881313   -3.16454848012906    1.76554512880508
H        -6.56057217151808   -1.23928361624802    2.00049308700368
H        -5.88944694604424    0.96200518730208    1.17913403737963
H        -1.52417807409373    1.43222898440884    0.01966827193695
H        -2.17577409156071    1.22692546322080   -1.64582585067286
H        -2.34879411678266    3.77246481547502    0.02362234795398
H        -1.11617492841301    3.45873906878127   -1.19361658045955
H        -2.64209251885359    3.66890672243795   -2.98369877870523
H        -3.33129670582242    4.80180715163362   -1.83072827558965
H        -5.24104802547826    3.51203699586296   -2.30447670777225
H        -4.30823850315773    2.06450956145001   -2.65018898482306
H        -5.63590893221308    1.86904049794719   -0.59145031375060
H        -4.75187327183918    3.22765986824223    0.13891281759495
H        -0.62763122984762   -4.71320273925535    1.82857964664021
H         1.06717791204218   -6.39451923149693    1.19506790930036
Cl        1.09914000124651   -0.09780047308867   -0.44675142071071
