63
 energy: -93.662296218592 gnorm: 0.000501961145 xtb: 6.4.1 (afa7bdf)
Ir       -0.15925235328487   -0.80110143588416    1.37594539089999
C        -2.38204494927853    1.02240907641302    3.33831069292016
C        -1.07162667517609    0.33639598964099    3.15374951031613
C        -0.83792268604451   -1.05136238551478    3.47838675689352
C        -1.85504404345628   -1.96880310150730    4.06943048201359
C         0.58528410324458   -1.27570957152439    3.46822784577068
C         1.26202275455426   -2.46539845932923    4.05700225582866
C         1.20852295562292   -0.08862428180188    2.99302485321698
C         2.66772128730653    0.21388647157368    2.95243089231323
C         0.17452022211831    0.91808970203827    2.80862687823566
C         0.47282991068814    2.35550457143234    2.54501237349418
H        -2.61301452143346    1.04344527218702    4.40388654989725
H        -3.18635520590284    0.49250068366828    2.83310738911157
H        -2.35561406450327    2.04388462073919    2.97340485117071
H        -2.84949429597536   -1.74075560448269    3.69697270830938
H        -1.62694932507186   -3.00814512452812    3.84945395750135
H        -1.86153256760013   -1.84655880422004    5.15329439642706
H         0.65074327023026   -3.35843174181442    3.96338947438494
H         2.23509100709006   -2.64133136646755    3.60926224378063
H         1.41302332322587   -2.27766802694167    5.12116192520175
H         2.94304808062022    0.64571628839378    1.99250663433816
H         3.26376480100684   -0.67641914184617    3.12272423389294
H         2.90444054067467    0.94288995787968    3.72732037555402
H        -0.43400454574248    2.93890438883656    2.41528207687452
H         1.09123674984526    2.46091521777029    1.65546825331655
H         1.02901105574445    2.76563204786043    3.38805648232811
C         5.69532362092355   -2.71942496726264   -2.65430280805468
O         4.99506950258380   -3.17105086207937   -1.49528422789407
C         3.71884607548668   -3.51646354582842   -1.64638068497005
O         3.12564144035272   -3.49137224784737   -2.69731572784922
C         3.11325857130006   -3.91743142125030   -0.32021675294998
C         2.62070014155417   -2.73271760477398    0.54131224732718
C         1.26796578553886   -3.44870104939464    0.71534864987760
N         0.09831923991769   -2.63332045129714    0.52944288315972
C        -0.86976318217174   -3.05538194924861   -0.21010575628537
C        -1.95078469751448   -2.14978994980974   -0.46598225075341
C        -3.05817490683087   -2.48514477933336   -1.26906599487374
C        -4.00623297537665   -1.53473384345304   -1.52215312771933
C        -3.81064702852571   -0.21989688484200   -1.04748471320289
C        -4.70130764780665    0.82968479001269   -1.34711584470367
C        -4.44055311536758    2.10741883492436   -0.93116058696859
C        -3.26797203034003    2.38772669828884   -0.21181682631818
C        -2.39728766252785    1.38596675424354    0.12346340581022
C        -2.65204471657142    0.05667356961440   -0.26242917429661
N        -1.79085946668339   -0.93498464000578    0.07675466180706
C         1.67377852255330   -4.44646123207807   -0.38885151407303
H         5.09821418285026   -1.97999874364074   -3.19025368258724
H         5.89963101454852   -3.56045418123644   -3.31893217236775
H         6.62262353317394   -2.28285742537992   -2.29434733871627
H         3.81338711363230   -4.56076006027507    0.21045402965434
H         2.51767969374180   -1.81209646200110   -0.02769419725684
H         3.19296742514419   -2.53945522517116    1.44162471767554
H         1.18821186109030   -3.93371599700623    1.69144994785701
H        -0.85925132533490   -4.03496550364996   -0.67238181769788
H        -3.13849629830793   -3.48652280888978   -1.65879232923151
H        -4.88656853048415   -1.76155264546090   -2.10338121223784
H        -5.58212834677449    0.60682731988258   -1.92932651555369
H        -5.12184696796924    2.90841306975637   -1.17171637438256
H        -3.05304442444976    3.40679129089460    0.06986554092338
H        -1.47383445969670    1.59851740281702    0.63667939157389
H         1.24424099313487   -4.20941095928681   -1.36088256038181
H         1.53354426355147   -5.50020602174296   -0.16572277117625
Cl        1.00655397313564    0.23767948926021   -0.44173899716072
