76
 energy: -112.381040558613 gnorm: 0.000384639917 xtb: 6.4.1 (afa7bdf)
Ir       -0.05872660751796   -0.39987367211523    2.17531676771510
C        -1.85617551328705    1.25739184506425    4.66177407261333
C        -0.57906959475355    0.68748942276375    4.15996789047865
C        -0.15988589017629   -0.66699064109946    4.39695318162160
C         1.21230965032752   -0.78515300557567    3.98199561377885
C         2.15410427585722   -1.86649662482224    4.38461510056225
C         1.59535697617093    0.45755656910164    3.37673619135682
C         0.47942601329026    1.37620643104838    3.49514278352676
C         0.58448908171833    2.82740811490452    3.28281326295796
C         0.34643429037710    3.69128247341008    4.35076703585575
C         0.49437273744280    5.05467975652548    4.19313682389393
C         0.88464668678743    5.59532145332025    2.96976693293541
C         1.04834830997629    7.04722342527609    2.80493034007528
C         2.13709227348995    7.56051904064628    2.10294782237657
C         2.29518247068791    8.92559000495274    1.94953613937414
C         1.36429262379690    9.79927313666612    2.48777653643294
C         0.27628252857731    9.29932615247352    3.18487821899987
C         0.12068649353627    7.93469491732484    3.34633982402543
C         1.12055804767797    4.72709460154923    1.90521849994443
C         0.97334516075924    3.36388600793738    2.05783003661792
C         2.97570400907164    0.83903498086976    2.97784045381261
C        -0.91688308880223   -1.65863212113431    5.21363119340661
H        -1.85275459390774    1.20795925338400    5.75125666423228
H        -2.71303652190366    0.68288444426582    4.31507389320824
H        -1.97413842476469    2.29137924076488    4.35474814478066
H         2.69849527435473   -1.52366952561183    5.26604447992608
H         2.88686855650960   -2.07698093805622    3.61049943027332
H         1.62907928336244   -2.77825608196138    4.65338764412182
H         0.07450535743588    3.29260794518266    5.31588979361430
H         0.32602804966097    5.70981393197908    5.03455735964084
H         2.87466841787447    6.88598929131363    1.69283617761921
H         3.14779537906728    9.31089195302417    1.40890246947320
H         1.48734314094646   10.86535144045685    2.36488907468471
H        -0.45402406446168    9.97713081039004    3.60286322413779
H        -0.73852537168240    7.55149405757530    3.87741297525829
H         1.40163582040595    5.12885894850474    0.94311551884777
H         1.12921981083725    2.71011662585041    1.21361746056339
H         3.58109807179837   -0.03447072833235    2.75549062551213
H         2.96696338490673    1.49623147773566    2.11312964328585
H         3.43563118768570    1.38212066823275    3.80432368229117
H        -1.98791896735707   -1.52995504217951    5.08748559069681
H        -0.65106867793190   -2.67830848501762    4.94956810942291
H        -0.67995017055203   -1.50798407383300    6.26757803598558
C         4.62540036195072   -6.61011915291359    1.26498533121507
C         5.04934199876282   -5.17738946271308    1.57165671010964
C         3.86802988050314   -4.22105245462646    1.75214576227696
C         3.08341154080923   -3.99408919352756    0.46116511589059
C         2.03438440638931   -2.88749412945186    0.56358301991054
C         0.86514722396258   -3.27454839756561    1.48574005341155
N        -0.17389839472841   -2.28128942498004    1.39684154500772
C        -1.21327570330143   -2.55928464987649    0.68804668632115
C        -2.17877852437083   -1.52891547193966    0.45317211164013
N        -1.92456020171623   -0.34168650389218    1.05360788686598
C        -2.70040936888590    0.69323498098229    0.73944171759759
Br       -2.27889867434888    2.38049054233045    1.45410619190616
C        -3.80004530690958    0.59993767180288   -0.10605005591536
C        -4.10799036496599   -0.61957748192117   -0.68762674245374
C        -3.27086588592273   -1.68326380475383   -0.40879079165091
F        -3.48184994826356   -2.87735198140191   -0.96965483768646
H         4.12091652711959   -6.67459979357472    0.30439311357018
H         5.49851499298893   -7.25796855982785    1.22743729344093
H         3.95668054505429   -6.98552994291873    2.03685626323595
H         5.63981119617867   -5.17652524435591    2.49100116849970
H         5.69328730466133   -4.81142395902671    0.76867254772942
H         4.26164029843161   -3.26199916622427    2.09607442665606
H         3.21199156614361   -4.62303793936605    2.52570039607455
H         2.59850395498624   -4.92176907942019    0.15552682242365
H         3.78582008800243   -3.71478541271599   -0.32673466025678
H         1.63293118707717   -2.68860304688113   -0.43159790965493
H         2.48995480123214   -1.96354144038018    0.92138331484817
H         0.47797597977816   -4.25099034695627    1.17775778156831
H         1.21470546591300   -3.33641772725199    2.51432458434549
H        -1.35255241275012   -3.53005951895468    0.22223015912684
H        -4.39839772728838    1.47498766882988   -0.30194073956740
H        -4.95255928814453   -0.73959020911517   -1.34742739162765
Cl        0.77962960436521    0.33565714984945    0.06740340520610
