62
 energy: -101.291772889685 gnorm: 0.000218528450 xtb: 6.4.1 (afa7bdf)
Ir       -0.60618299214334   -0.88806597777074    1.22822932776927
C        -2.06671929717768    1.04306741955632    3.64389269487813
C        -0.83628533225704    0.41795376146169    3.08405847567793
C        -0.33321260392401   -0.88079645728538    3.43953833834422
C        -0.92042891613991   -1.76769197197894    4.48422604315995
C         0.97656975062758   -1.02461315230299    2.85583060318875
C         1.95153429450359   -2.09469336774071    3.20512842854485
C         1.21952242150911    0.10799820643052    2.03441491658655
C         2.50460090881641    0.46445409616546    1.37006689192129
C         0.08415384919513    1.01401899061682    2.17829219346710
C         0.08452821507417    2.42282784079028    1.74804655423081
C         0.02160559914257    3.41948835305194    2.72105404354491
C         0.07449026277201    4.74404036190626    2.33123767032774
F         0.01906174609631    5.70117272467840    3.28174337743549
C         0.18311790342415    5.12771895202456    1.00676131438896
C         0.23593262547411    4.11426278943901    0.06558562369962
F         0.33600940584839    4.45170864657655   -1.23707895999216
C         0.19100206096470    2.77601920943464    0.40595002194762
H        -2.32654635910301    1.94793296447959    3.10142223366333
H        -1.88585760969778    1.30610552009735    4.68659881870637
H        -2.90752681544274    0.35312700485723    3.62317880247080
H        -0.65102283386311   -2.80634611791808    4.31461818626852
H        -0.53444294413932   -1.47464017072136    5.46110608532712
H        -2.00275623569272   -1.68006065857139    4.50799912274966
H         2.48964519100649   -1.79322539071824    4.10435053850533
H         1.45066446818742   -3.03658911654061    3.41042471787226
H         2.67606407344045   -2.25015785197574    2.41156556326885
H         3.11913082788364   -0.41646689871420    1.20928673878675
H         2.32904453055526    0.95197292347606    0.41469524500763
H         3.05437230609651    1.15932905056785    2.00599011483278
H        -0.04489209109888    3.17664285066661    3.76897731742842
H         0.22574142453464    6.16558041487084    0.72130517293806
H         0.21267986609096    2.02325575883036   -0.36661152204144
C        -7.39014635748350   -0.90158947058920   -0.81445568405741
O        -6.36194784647795   -1.88251404621845   -0.77616729938601
C        -5.16446570696802   -1.56341780430160   -0.30610221359328
C        -4.77978827840609   -0.30166938420831    0.17575413091435
C        -3.49605666712993   -0.11835052195034    0.64446249114114
N        -2.58693597539980   -1.08773986816777    0.67884060180500
C        -2.92985601556204   -2.30913657442461    0.19189484838557
C        -1.84208403043595   -3.24771726242470    0.19793125958690
N        -0.70126508521450   -2.81153785060026    0.62273169309098
C         0.41777654066859   -3.65796057799256    0.63425116954430
C         0.33522293711564   -4.94306061143250    1.17093689530099
C         1.45100910212546   -5.75966025339388    1.16636810348653
C         2.64234303286927   -5.31382271404573    0.61381217031104
C         2.72123715802250   -4.03869108680422    0.07344200125923
C         1.62003852588238   -3.20323411949297    0.09341774287351
C        -4.19615331027734   -2.57871278038492   -0.29474595012666
H        -8.25625290019714   -1.40899454412725   -1.23310884845026
H        -7.11082969447733   -0.06473417712841   -1.45772404004775
H        -7.62563321186485   -0.54278989338173    0.18955880474860
H        -5.46217481410937    0.53131152412867    0.18547655357531
H        -3.18460160152338    0.84979174659772    1.00716487098504
H        -1.96467503666605   -4.25337689282436   -0.18668244801029
H        -0.59021626740944   -5.28155382753023    1.61141624713941
H         1.38980176917674   -6.74860486300382    1.59314038304645
H         3.50758123811219   -5.95797998234379    0.60469728798420
H         3.64475933191072   -3.69408982484216   -0.36555895949185
H         1.65998255432169   -2.21529398928764   -0.33938363904350
H        -4.44842341476031   -3.55428809539054   -0.67573267422510
Cl       -0.27319867636340   -0.35071796216768   -1.07798319363463
