62
 energy: -113.130393203927 gnorm: 0.000540469241 xtb: 6.4.1 (afa7bdf)
Ir       -0.36508510465206   -1.07270400920633    1.42086959275869
C        -1.60199330777835    0.73902350999610    4.08583304507280
C        -0.44491771727358    0.14501040581963    3.36975292329718
C         0.06634034136723   -1.17210780729069    3.62418499558397
C        -0.45124080280721   -2.10922705122875    4.65954272132509
C         1.30305138555537   -1.31402380226490    2.90814886016533
C         2.32610061795005   -2.36847153094479    3.13117023634516
C         1.51408365985455   -0.11836283226309    2.14270290222892
C         2.76930086622830    0.20749718363712    1.41821098319937
C         0.42101717221102    0.78806970847099    2.42488030374529
C         0.42613365258619    2.21520918598464    2.06653166881913
C         0.35728244675009    3.17308513206695    3.07576684818252
C         0.41783313217215    4.51113393606107    2.73510721249200
F         0.35467657711136    5.43061341727822    3.71914458340802
C         0.54377379096502    4.94371644677449    1.42756102699312
C         0.60882097726722    3.96716722222424    0.44910864354456
F         0.72913928324349    4.35084529683255   -0.83789243774510
C         0.55730375072126    2.61767613934467    0.73919871920037
H        -1.85997537086912    1.71416575620943    3.68677469287719
H        -1.33977435061138    0.84371471821053    5.13932798652633
H        -2.47366773261552    0.09002294953624    4.03600414531729
H        -0.16646329546270   -3.13324045973662    4.43499032460975
H        -0.02306288633278   -1.84272985420278    5.62659287087367
H        -1.53256570243256   -2.04644886447680    4.74216598353595
H         2.94524828862885   -2.06074367428218    3.97541475072842
H         1.87628828222323   -3.32672007699831    3.37318919734144
H         2.96916622088622   -2.48202186584746    2.26427612706807
H         3.01103462959086   -0.56022252054874    0.68669263102637
H         2.69225419048614    1.16301264053578    0.90923303760469
H         3.58794228499342    0.25377038742737    2.13674815291789
H         0.28432388000422    2.89410999600192    4.11364275128656
H         0.58736591220237    5.99156674746535    1.18195304183946
H         0.58596339027215    1.89454075752183   -0.06096867596138
C         4.74733867720292   -5.39573549992025   -0.21109836280240
O         3.68928668161910   -4.45158071903702   -0.20257105308754
C         2.55984186296025   -4.73483232239274    0.46477868213732
C         2.34328473304419   -5.89458103667425    1.21129182319078
C         1.13148542653336   -6.07346259513423    1.86170995502680
Cl        0.87792224966325   -7.51796469000873    2.79009579181386
C         0.11736005315507   -5.13566183858627    1.78509521486423
C         0.34475998865968   -3.97361479098567    1.04440498661934
N        -0.66291583024228   -3.00172573621725    0.92723122569147
C        -1.84029458572404   -3.37207859853722    0.53675470211562
C        -2.82829916058304   -2.35432651939628    0.36443305124383
N        -2.45096214414391   -1.10513848339154    0.73390538834243
C        -3.28120593152610   -0.09961621230564    0.47093900800584
Br       -2.73430680641158    1.64716460396682    0.90012053908999
C        -4.53454066235552   -0.26864361541057   -0.10729428489960
C        -4.95478843823110   -1.54232393262558   -0.45574985057509
C        -4.07942049448396   -2.58625064314434   -0.22127247636604
F        -4.40524850295864   -3.83412728908406   -0.56133936234904
C         1.55301046347115   -3.76605695306487    0.39841929634575
H         4.42924181965675   -6.34214127351014   -0.65398145457784
H         5.13219052570056   -5.56630117593594    0.79688051539827
H         5.52567216061423   -4.95118467488456   -0.82727724657871
H         3.09851627705707   -6.65729346456574    1.29348189863290
H        -0.81377086870345   -5.28922663257199    2.30432303478711
H        -2.06391287526180   -4.40114758028546    0.27881036645543
H        -5.16506963680668    0.58941490524289   -0.27639738236972
H        -5.91929835791226   -1.72104120403133   -0.90436870883111
H         1.70870017049480   -2.87896612675099   -0.19419753129754
Cl        0.02565674306334   -0.60195308888158   -0.87162061220998
