76
 energy: -122.760470028628 gnorm: 0.000341259487 xtb: 6.4.1 (afa7bdf)
Ir       -0.62157831630056   -0.68221703850462    1.42715317537168
C        -1.73180493407280    1.06011423346616    4.22905501022967
C        -0.63067713696897    0.42160903140235    3.45972189812744
C        -0.23329518895465   -0.95259017744914    3.60738904831435
C         1.00536164245772   -1.13283350590193    2.90146603869987
C         1.93354611307809   -2.28591318630725    3.05686081838690
C         1.30026902834852    0.08394931241164    2.21062338642656
C         0.28164660604165    1.05777186151928    2.56743034484200
C         0.39093388246973    2.50045227584230    2.30963644005284
C         0.44929908390410    3.38295651877253    3.38708242674167
C         0.62883850868172    4.73480329123693    3.17443874541492
C         0.75470451689818    5.24535335716674    1.88397159006084
C         0.97128868455008    6.68276346731688    1.66133961610860
C         1.89513596651072    7.11836210774827    0.71328794716950
C         2.11263434045536    8.46874366464279    0.51036944424273
C         1.40544935047157    9.40628660369879    1.24552926498663
C         0.48047978162384    8.98432352751991    2.18676355686313
C         0.26697345897016    7.63407975538430    2.39641188419447
C         0.68261693816396    4.36014840317770    0.80988312488421
C         0.50362239181452    3.00768658184966    1.01742336872187
C         2.57786685395563    0.38680919779949    1.50933509962341
C        -0.83006667218716   -1.91915975515427    4.57356336646811
H        -1.45599267803268    1.07261251201699    5.28435908527004
H        -2.65762397705539    0.49551486927789    4.14188845549163
H        -1.90316523821477    2.07957602431388    3.89813768399792
H         2.57367664407900   -2.09308780885818    3.91854863635630
H         2.56805235314492   -2.40343879514418    2.18358062455345
H         1.39754869836981   -3.21340306131743    3.23696972286022
H         0.38781911636648    3.00446277338547    4.39560630491581
H         0.69823394429555    5.40262526881608    4.02002500520386
H         2.46141488336095    6.39292267851899    0.14719489266864
H         2.83791262613827    8.79219574147918   -0.22254793957577
H         1.57489230645381   10.46111624597837    1.08560959682997
H        -0.07640670863599    9.71227196124384    2.75909282677897
H        -0.46696375774761    7.31339369416175    3.12130571235107
H         0.75118306311230    4.74016817093940   -0.19848120474079
H         0.42331753747402    2.33950553935192    0.17361892276260
H         2.89241650077112   -0.44453653386316    0.88323177723369
H         2.47981511732161    1.27618358569363    0.89417427829947
H         3.35434427861819    0.56574736905497    2.25441155903179
H        -1.89004198427885   -1.72839525468050    4.71433600345142
H        -0.69900211423437   -2.94462405234301    4.23771469244803
H        -0.33427492967989   -1.81441849095265    5.53925107779685
C         4.51602508133418   -4.50856406182408   -1.08902406543402
O         3.42663603710955   -3.62963437829717   -0.86636068181849
C         2.35018300023429   -4.07588031217949   -0.19087584356330
C         2.22591271479345   -5.34694374221539    0.37378447639049
C         1.07678935557549   -5.69049131458323    1.06598609683511
C         0.04415979475697   -4.78453455067272    1.18152437477502
F        -1.06540655185292   -5.12055221800335    1.88401446020363
C         0.13843007639018   -3.50538917063995    0.62311135910532
N        -0.90322598978682   -2.57310875886431    0.72625551064116
C        -2.10828698338186   -2.91841003677254    0.41021040552805
C        -3.12158760189391   -1.91204668121321    0.44039862151409
C        -4.42312332702408   -2.11672996302842   -0.01512418734717
C        -5.30252524862157   -1.05654474473317   -0.08787779954256
C        -4.85246301240396    0.21789327975829    0.27081258257066
O        -5.54919187059461    1.34492823321421    0.22830846790799
C        -6.90453424501032    1.32144290741847   -0.19983214438545
C        -3.52100883885299    0.33354525331467    0.73159946607637
Br       -2.93135295932619    2.06745871948824    1.15651221526007
N        -2.69321784565442   -0.68711689547215    0.85022314354676
C         1.30187678463701   -3.16247242773996   -0.05044440598422
H         4.97035130522093   -4.82365422030943   -0.14633298842216
H         5.23715511984371   -3.93240284574565   -1.66477001889463
H         4.20661057652858   -5.38404178610197   -1.66496449552680
H         3.01451906089812   -6.07466426920835    0.28444694174138
H         0.97506831006536   -6.66497943845031    1.51586690990028
H        -2.34623116604677   -3.91432600655851    0.05330603646389
H        -4.72870580709206   -3.10423534375484   -0.31986825949375
H        -6.30973187419572   -1.20858281347955   -0.43959270253927
H        -7.50933230039176    0.69122170569534    0.45530211994144
H        -6.98235882149223    0.97676126947565   -1.23299352864369
H        -7.24240769643418    2.35299157676653   -0.13166176911743
H         1.38482734750332   -2.18556696549701   -0.50007486376043
Cl       -0.32961100637395   -0.00992396448737   -0.84749074384869
