70
 energy: -122.621488641178 gnorm: 0.000557658710 xtb: 6.4.1 (afa7bdf)
Ir       -0.63433542326362   -0.77205394511825    1.53140698312936
C        -1.75117559973156    1.04605166072535    4.26089474104250
C        -0.63220531582789    0.44677184918653    3.48825662902194
C        -0.12825327556841   -0.88039996957292    3.70693765078671
C        -0.61441889003725   -1.81341300437661    4.76288952938927
C         1.08690165663061   -1.02283105529711    2.95119123922018
C         2.10655099521096   -2.09133661225179    3.13421703601590
C         1.27274034640068    0.16933509490140    2.18359020312023
C         2.50124538534192    0.50188030482030    1.41408931422957
C         0.19796873936296    1.08414360709880    2.51536842466286
C         0.18517149966544    2.50851411994281    2.15059471556849
C         0.18040483042353    3.47144384639835    3.15736862843583
C         0.21034894476297    4.80795215752050    2.80755034163138
F         0.20822005993171    5.73270273921108    3.78999190425494
C         0.24447936573569    5.23510911180707    1.49265584791460
C         0.24796116716788    4.25367488362530    0.51679982978878
F         0.27539995424992    4.63227526460462   -0.77829681638152
C         0.22262174380763    2.90593654987386    0.81600176163760
H        -2.01119364042055    2.03049553312736    3.88629037044398
H        -1.44371133731541    1.13247850588328    5.30380637642153
H        -2.63404960672767    0.41093050745156    4.23583740357927
H        -0.32492054164786   -2.83687453349654    4.54396911286413
H        -0.17042146369350   -1.53182675746922    5.71828251592110
H        -1.69438082293595   -1.75944388523033    4.86564198725530
H         2.76694889187086   -1.79239245703722    3.94958688295610
H         1.65350417695862   -3.04301305386125    3.39624649029366
H         2.71212698664414   -2.21617970477008    2.24160096947166
H         2.79255365236953   -0.31711870925987    0.76070149758637
H         2.36250246569321    1.39538425695825    0.81333647913991
H         3.31877609924671    0.67690601760743    2.11427554101394
H         0.17743935960525    3.19611672764690    4.19896011068684
H         0.26560679877932    6.28174733444814    1.23912182020183
H         0.19766960404759    2.17948888797355    0.01884305236200
C        -6.93349579614198    1.03120309904298   -0.29489828555243
O        -5.59312624794542    1.09647314390953    0.17516262570722
C        -4.88302735635296   -0.01419280242652    0.29809704552620
C        -5.30572840709465   -1.31433673812895    0.00377731067621
C        -4.41412109979347   -2.35374901416063    0.16518986021656
C        -3.12503115670480   -2.10106663498049    0.63355494441612
C        -2.10268112401398   -3.09400172648180    0.70032094419675
N        -0.90542467636602   -2.71085988927193    1.01040581365343
C         0.13738284224624   -3.65000522491535    1.00756539829236
C         0.01705147053774   -4.85451009204681    1.71269323207653
C         1.04216904099822   -5.77034442606379    1.68666191889312
C         2.21041480684557   -5.53117498287506    0.95026112236882
C         3.31648323298866   -6.45968402742252    0.86500653430745
C         3.26050167640595   -7.76016245187872    1.58921073106489
C         4.38461134044818   -6.10780854177395    0.11168310031780
C         4.47104844284496   -4.85229168261452   -0.60156781608576
O         5.40554502256580   -4.49443098996059   -1.28451533663390
O         3.40709811673858   -3.99815411894391   -0.48482477866028
C         2.31677943489942   -4.31776898226403    0.24738210012594
C         1.28931283575845   -3.37844292343156    0.28534808834188
N        -2.72047296033533   -0.84563095199865    0.97484089010841
C        -3.56500710719098    0.15010117193292    0.78578305349148
Br       -3.03853183433314    1.91845790222912    1.15461890656261
H        -7.55291448599549    0.43325850878276    0.37634848268516
H        -7.28470481419693    2.06062215175903   -0.29863287644910
H        -6.97230228415871    0.62638105573110   -1.30827285536852
H        -6.30206501689334   -1.50164661530596   -0.36173132148795
H        -4.70028495482783   -3.36302357850675   -0.08219168997948
H        -2.31564059219005   -4.12011951529402    0.42172214247611
H        -0.87296444225981   -5.04867090802510    2.29035507605409
H         0.94316662041220   -6.69125685710228    2.23684772619189
H         4.16833296700810   -8.32993525528726    1.41560499839819
H         2.40909986981047   -8.34586180367824    1.24741790613236
H         3.15169245214517   -7.59234313170951    2.65901169735117
H         5.24031470928817   -6.75462171482862    0.00032857567039
H         1.38095441494624   -2.46245796626997   -0.27649176204234
Cl       -0.36548574685575   -0.28561875880977   -0.78659807670774
