65
 energy: -97.864895408558 gnorm: 0.000649993093 xtb: 6.4.1 (afa7bdf)
Ir        0.52087506008876   -0.67554263118422    1.53465267764975
C        -2.41386888953301   -0.60679628433379    3.19853005839116
C        -0.92733034678289   -0.55645328847711    3.20542046183769
C        -0.07595404069674   -1.67700292304915    3.47770146676370
C        -0.52947071947544   -3.07775963869522    3.72197029914173
C         1.25267133891498   -1.16709588531146    3.55156598105384
C         2.46226534329884   -1.92294343394822    3.99164867943263
C         1.18448028947959    0.30836317157380    3.52838132941055
C         2.34100065143949    1.20224174231722    3.83180283751050
C        -0.14253914340706    0.67136198129043    3.34473026658929
C        -0.72105863894293    2.04371385064124    3.34695148251551
H        -2.76486473346410   -0.74942236003288    4.22152009049264
H        -2.77764802337154   -1.43695749253119    2.59701334211711
H        -2.84132452963647    0.31584377955696    2.81594597637795
H        -1.43201119481735   -3.29638353116327    3.15813923535867
H         0.23258532524205   -3.80100944026718    3.44546396206212
H        -0.75049462847822   -3.20341016081981    4.78224775107009
H         2.29195455356321   -2.99433744506839    3.93485087207648
H         3.33992374755506   -1.66688705095422    3.40108720073937
H         2.67495493759641   -1.66682740236316    5.03010002766098
H         2.26389326353614    2.14679485711425    3.29983522833515
H         3.28215867397076    0.72392177804327    3.57859540653307
H         2.35260625167796    1.42045665663715    4.90011840037549
H        -1.22768745745773    2.22592120196872    4.29531051322972
H        -1.45505956077987    2.15836163670879    2.55066542707186
H         0.05442747842643    2.79421412370028    3.22277479238463
C        -1.50123022559566    3.90769878646065   -0.83885881402722
O        -0.70795661567515    2.73435658232394   -0.78399180251950
C        -1.28665889802399    1.56436110960788   -0.47728150565102
C        -2.63463435659323    1.36988769543608   -0.19970150136254
C        -3.08570583236307    0.06945289272853    0.02647920559290
N        -2.31905717999824   -0.99372356667891    0.06586745900894
C        -1.00667678702015   -0.82975272428336   -0.17428421987827
C        -0.09076994879981   -1.93008830155417    0.04117431353795
N         0.09748723747689   -3.00679706178713   -0.52789713302812
C         0.94265715795116   -4.07199997396919   -0.30752750740195
C         0.87290823019011   -5.12096688948402   -1.25229065336378
C         1.66679123360088   -6.22160114015672   -1.11823759375238
C         2.57601044546405   -6.33787849378404   -0.04264222655965
C         3.39837218976283   -7.47103557064831    0.10881232742544
C         4.27686291997175   -7.56250237215774    1.16322346358714
O         5.11009376767787   -8.60485954904816    1.40933677658663
C         5.09076008507215   -9.71083877404735    0.53118087688271
C         4.35783471723913   -6.50273003998204    2.10000465239456
C         3.57245995106888   -5.39903747849470    1.97145412148790
C         2.65338346136227   -5.27977599839229    0.90287972479682
C         1.82399458042474   -4.15840030376859    0.75002981128098
C        -0.43026329743805    0.43950961337376   -0.46141522966533
H        -1.96490681881184    4.11780789435741    0.12807127032299
H        -2.27271577308115    3.82738359163624   -1.60839208683983
H        -0.81329923201647    4.71001611289383   -1.09536970454291
H        -3.34209773379996    2.18178087905392   -0.20903181273703
H        -4.13899318564568   -0.11615084035305    0.18905778430695
H         3.46125270407491    0.41282578952057    0.56251326676845
H         0.17910538329519   -5.02701746688971   -2.07265395263810
H         1.61070306083378   -7.02368412103974   -1.83934899422715
H         3.31443377492795   -8.25838393708154   -0.62375656030034
H         4.10763002179685  -10.19150274788224    0.52114365214265
H         5.36734425098933   -9.41601907982075   -0.48571035484879
H         5.83115075479029  -10.40729339143013    0.92051874218802
H         5.06049482427415   -6.60644732493258    2.91143937329101
H         3.64746023963894   -4.59802527260332    2.69067750175733
H         1.87380500375366   -3.35630399152758    1.47333773480401
H         0.52925526435972    0.54570188555036   -0.95574115775813
Cl        2.74518061686586   -0.62635523239767    0.37868598679981
