80
 energy: -125.818037676341 gnorm: 0.000414496553 xtb: 6.4.1 (afa7bdf)
Ir       -0.35904385652999   -0.54858227378517    2.17798596641549
C        -2.66109461387940    1.26155994492332    4.01443125318004
C        -1.32236116592716    0.62687734619373    3.87839598302223
C        -0.99044498530900   -0.70349242705921    4.32851919852825
C         0.43940535210503   -0.83889059890249    4.29039022920813
C         1.22331013413136   -1.92354259546278    4.94316375835882
C         0.97994380722909    0.34978083672060    3.70996352703570
C        -0.12351944731193    1.26938786794866    3.47083988552453
C         0.01515718984169    2.68965029826295    3.11656221707780
C         0.79931632976590    3.51654158606155    3.91947449087505
C         0.91396123953577    4.86239928658525    3.63667420844598
C         0.26203055504825    5.42095675551493    2.53860054914285
C         0.39805046614626    6.85232138916648    2.23197241755795
C         0.57943083466095    7.28160247538531    0.91890101902362
C         0.71538129131676    8.62729431501534    0.63123412094437
C         0.66471214350470    9.56592438111709    1.64898637554508
C         0.47961492361422    9.15007892626626    2.95768106583405
C         0.35102137775946    7.80432791988728    3.24845112504557
C        -0.51425536957273    4.58935818333250    1.73401958646441
C        -0.64064819160893    3.24514150620751    2.02154716575757
C         2.42432865326589    0.69827958155382    3.60961790051436
C        -1.93446588819809   -1.63535148992875    5.00626643826744
H        -2.84632721951556    1.44719540576657    5.07367101894520
H        -3.45809572753030    0.61399100074114    3.65464558878447
H        -2.69807288961250    2.21654963354583    3.49595126615011
H         1.34960343158609   -1.66143858241379    5.99486165559172
H         2.21414109080070   -2.01729693140575    4.50751286243922
H         0.70535744585140   -2.87790510601179    4.90302553833580
H         1.30431268782718    3.10646722981163    4.78005202772181
H         1.53412693272360    5.48815589920410    4.26088492311290
H         0.63695782527190    6.55435907774375    0.12197692891582
H         0.86261620859073    8.94581375521580   -0.39065839445997
H         0.76869155975716   10.61711800086851    1.42318751699376
H         0.43408605607168    9.87889832388511    3.75387084307568
H         0.19197278728877    7.48944488143578    4.26956858829758
H        -1.03436645133397    5.00502574025342    0.88384778901274
H        -1.22258988660570    2.61507079109958    1.36535289064826
H         3.01975587193835   -0.16315747995913    3.32044723637888
H         2.57699884694565    1.49107317694404    2.88232388643114
H         2.78158840218728    1.04435771045558    4.57995007389694
H        -2.93866659592558   -1.53856673769384    4.60382014244857
H        -1.61012729055662   -2.66710633510192    4.90771616152149
H        -1.97179137816402   -1.39255720227603    6.06894795586660
F        -5.78109812947267    0.90799322811022   -1.40463250453243
C        -4.73176642741267    1.30392740232095   -0.67553460916398
F        -5.21426569614344    1.74900262695764    0.49554516292760
F        -4.21332243832033    2.37782036610301   -1.29975850795076
C        -3.70866317808362    0.21502735521584   -0.49167108738807
C        -3.57691431868207   -0.81199744810166   -1.43048508337057
C        -2.60959513706629   -1.77009366656808   -1.21139635481789
C        -1.80159151546699   -1.67873131987300   -0.07416905612287
C        -0.76795788869722   -2.60576365567097    0.26779184495629
N        -0.03707979521983   -2.34292034982415    1.30453212343740
C         0.98188334265452   -3.31183159458381    1.65328047876625
C         2.19779924547490   -3.26142731297158    0.71128597229387
C         3.14633774089717   -2.10726281150812    1.04712297480036
C         4.24861401868471   -2.03197281630312    0.02738447600603
C         5.42384270912026   -2.75364770931775    0.19196593312693
C         6.41975330125142   -2.70610839583606   -0.76819158132057
C         6.24922791155383   -1.93745094056456   -1.90735967223187
C         5.08015571584721   -1.21452795704945   -2.07988127195335
C         4.08607974273859   -1.26400611193127   -1.11884470490340
N        -1.94140380103131   -0.67027550616411    0.82482484381631
C        -2.87086193770856    0.25259899169199    0.61196331881057
H        -4.22050036930425   -0.84856530259316   -2.29568019234078
H        -2.46400203071295   -2.57840037075713   -1.90950551197407
H        -0.62151031154705   -3.50642326077021   -0.31815034397197
H         1.31455618079644   -3.12741380673515    2.67283984214901
H         0.54022835721274   -4.31088638464387    1.59886863903488
H         2.73768725909117   -4.20517326041375    0.79606648543172
H         1.85901228584995   -3.15672308711507   -0.31988310480435
H         3.57542939432552   -2.26967073062963    2.03716731439919
H         2.58556869173588   -1.17227891584123    1.04257394038630
H         5.56652955880997   -3.35425574493717    1.07912873032155
H         7.33192831963008   -3.26851329083786   -0.62881378177282
H         7.02614075886920   -1.89950356653345   -2.65737785054548
H         4.94537580933500   -0.61057252275754   -2.96601120599094
H         3.17741452843843   -0.69462371803437   -1.25190428326486
H        -2.96816444912942    1.04171791394947    1.34376129244250
Cl        0.69919806483450    0.48213920766442    0.31209135346289
