72
 energy: -111.940535998867 gnorm: 0.000343576607 xtb: 6.4.1 (afa7bdf)
Ir       -0.43209516251120   -0.55082711142602    2.09765650213560
C        -2.28290535848953    1.64363548846945    4.01858219565658
C        -1.07808505186817    0.79870450015942    3.77238534199741
C        -0.88243360525993   -0.52267974623370    4.31837310013559
C         0.51001244585721   -0.84287973177027    4.21547856458163
C         1.18758651891881   -1.93055332316593    4.97144399564185
C         1.15138270749074    0.20085219692144    3.48099762861285
C         0.17777290225446    1.25537978664397    3.26624454736474
C         0.45640670473709    2.62203032714595    2.81511045181505
C         1.48140679246724    3.34817092067093    3.42066981191480
C         1.71306172122340    4.66206577088136    3.06664342192977
C         0.94273597343796    5.28692801751835    2.08757353209059
C         1.19296472890777    6.68629013392316    1.71206848386348
C         1.16026899846576    7.08039041987849    0.37582588822531
C         1.39765314652335    8.39648459177661    0.02403692261933
C         1.66510575988848    9.34168621847259    1.00105291668845
C         1.69609033938466    8.96163919216061    2.33306874959348
C         1.46610194297263    7.64468105305832    2.68635364897826
C        -0.07010585163983    4.55211350584807    1.47283024235077
C        -0.31589566113413    3.24404689118225    1.83543240596470
C         2.61764825443270    0.29201570965135    3.21560419642849
C        -1.88195722209595   -1.27480189739579    5.13042975805486
H        -2.19613092054014    2.07050805199410    5.01918813553231
H        -3.19895702596889    1.05900334733020    3.99163805410931
H        -2.34409733401466    2.46826906728943    3.31416959199500
H         1.29477209098431   -1.59328749959977    6.00437034386628
H         2.18015736454075   -2.13596704004416    4.58343103824877
H         0.59846547653198   -2.84387237116805    4.99032528547946
H         2.08079408836822    2.88978223347506    4.19159148294350
H         2.51417480962215    5.20825598994098    3.54182542555695
H         0.96960194878702    6.34611570923204   -0.39336523213922
H         1.37545501238174    8.68694685407951   -1.01650705224149
H         1.84806377857647   10.36996086943143    0.72566702358147
H         1.89985946961703    9.69600129560897    3.09890401319639
H         1.47830355506180    7.35981789165452    3.72843375896391
H        -0.68148370936173    5.01940484306174    0.71519833877229
H        -1.08334111003396    2.68344022465882    1.32384322311121
H         3.00651813003991   -0.67138231592384    2.89138571835388
H         2.81803945841634    1.02779015977051    2.44120506488139
H         3.14680589468546    0.58403384123733    4.12296673984653
H        -2.89320469804200   -1.09782839663991    4.77563993564165
H        -1.68321388357836   -2.34240576437654    5.10624291864541
H        -1.82329541179939   -0.94181364262074    6.16726796812303
C         5.05976336453596   -4.87600424663501    3.03285450414345
O         3.75224263659551   -4.32995142930181    3.05202037702896
C         3.22885338746492   -3.83873563349922    1.90987986101549
C         3.88562660883953   -3.78508145101863    0.68020527996844
C         3.23742911341135   -3.26251167114510   -0.42592906894761
C         1.94479360359674   -2.79369659514478   -0.31804698057363
F         1.32807457516960   -2.30653077612068   -1.41691848748477
C         1.27231109909977   -2.80584768027245    0.91074470738661
N        -0.01866356868832   -2.26913056648484    1.03344533895565
C        -0.92960193010435   -2.64368397142036    0.19219820039517
C        -2.16813145426835   -1.92658734233808    0.19707409466505
C        -3.23153528800039   -2.20115955578518   -0.66527595150312
C        -4.35322512204827   -1.39612771774828   -0.62405615446088
C        -4.37201193051223   -0.32894310428560    0.26834657831474
C        -3.28096030190546   -0.11601421818949    1.09223227902714
N        -2.20540514561192   -0.89951320950224    1.08031092268516
C         1.92558589424871   -3.34691491088558    2.00705366180430
H         5.80035203851864   -4.12555678147267    2.74501869606453
H         5.12100422203609   -5.73386878212025    2.35890006727040
H         5.25068488382460   -5.20177114335997    4.05305878694246
H         4.89243543254921   -4.15059059473885    0.56811119176055
H         3.72880468153017   -3.22208455408803   -1.38475043124843
H        -0.75986778741822   -3.44179150839819   -0.52167235851672
H        -3.15425975887719   -3.02599816139147   -1.35507215643221
H        -5.19169345773840   -1.58451283676084   -1.27561294079690
H        -5.22167884069854    0.33165999311784    0.32645004831424
H        -3.27304419444616    0.71199265003321    1.78384634817351
H         1.40919096705913   -3.42708270773180    2.94588008096251
Cl        0.31201026356217    0.48986324390030    0.08627942196691
