78
 energy: -112.683357585869 gnorm: 0.000540978964 xtb: 6.4.1 (afa7bdf)
Ir        0.26939581966725   -0.28939912346153    1.63942341615937
C        -1.93298813592073    1.37435682876505    3.61874287986748
C        -0.60998509697058    0.71888409494607    3.44593990848332
C        -0.40716666558381   -0.69168459854830    3.78362084305268
C        -1.49469164009032   -1.59067057048949    4.26267798240649
C         0.96968819853671   -0.95566163383490    3.70415236400084
C         1.70967267788985   -2.15773728917552    4.18409720609407
C         1.62228252351785    0.28803244755984    3.27644234120945
C         3.10605453218849    0.43476720956808    3.22916881997490
C         0.65484431850940    1.33612081714107    3.23745166457604
C         0.97287789421397    2.79641224658204    3.06002773291331
C         0.35406579927597    3.41110780339001    1.79877895643268
C         0.82098172365043    4.85510793157175    1.63917347672143
C         0.43943277947947    5.67898438524417    2.86671534915186
C         1.02775929019297    5.06078314990309    4.13285541996132
C         0.56303547485914    3.61518865492100    4.29150976652944
H        -2.73818894001156    0.70220301950104    3.33191692754454
H        -2.01651658641463    2.29171741204766    3.04489026909294
H        -2.06552470199876    1.61437097978303    4.67508595524590
H        -1.13163083316807   -2.60433952565324    4.40217487501680
H        -1.88193706190907   -1.22532355405511    5.21354583220233
H        -2.31673364271494   -1.61683902980313    3.54817437644772
H         1.02886417869653   -2.97941523658543    4.38574692655471
H         2.45590110222959   -2.48658524171420    3.46426982717574
H         2.22705256587692   -1.90921281906786    5.11140529899124
H         3.57568311573156   -0.45830977879497    2.82469678190529
H         3.41131023275862    1.29632564349721    2.64363728402789
H         3.47301463976269    0.56822796669927    4.24768071428573
H         2.05961681524250    2.88680701094519    2.96397610051293
H        -0.73394761743164    3.39903002102419    1.86810059166811
H         0.63913645585199    2.82658026854308    0.92107022046102
H         0.37371424039138    5.29207438734664    0.74443537167061
H         1.90562997908205    4.87894868979690    1.51390560526558
H        -0.64892577549735    5.72021083777310    2.95689841232296
H         0.79950427733090    6.70356091311176    2.75308874726572
H         0.72287771863477    5.64226394326955    5.00549721916021
H         2.11854797531705    5.09209304932874    4.07886246575972
H        -0.52024554648604    3.60007521898934    4.40943328612157
H         1.00560653884450    3.17800250889011    5.18866664453047
C        -2.81661186443085    3.73070523529163   -0.95244815103173
O        -1.90570188687596    2.64741793343769   -0.89121968083446
C        -2.25327103056063    1.53760800008849   -0.22644347599483
C        -3.45586950186160    1.32696818277401    0.44067832105732
C        -3.67457911498249    0.08995221915923    1.04443420780328
N        -2.81040601038936   -0.89863828405027    1.06540500547743
C        -1.64462456550027   -0.71909105998330    0.42031834685485
C        -0.60396647793210   -1.72590730794636    0.49543298417067
N        -0.41983216637985   -2.80172578692870   -0.07174015746789
C         0.56279519027581   -3.76291974134269    0.01324968913482
C         1.02488902811614   -4.33399870058722   -1.19282782923057
C         1.96976882918367   -5.31749441404231   -1.16427933388270
C         2.48406354902822   -5.80207819939379    0.05938906919985
C         3.45155167099930   -6.82563916358696    0.10024310170590
C         3.93199207490812   -7.28512151754067    1.30343550286573
O         4.86103247151924   -8.26473756792313    1.46237333953918
C         5.39252962850295   -8.88597284838745    0.31167139921036
C         3.44882982148250   -6.72386094078044    2.51055123415137
C         2.51206094803769   -5.73629814473104    2.49324761185476
C         2.00081417510968   -5.24152673008221    1.27140233899247
C         1.04369463335289   -4.21500979096428    1.22266600952786
C        -1.30693794556870    0.49185887413370   -0.23460209337294
H        -3.03378988433165    4.12119151047934    0.04460211807464
H        -3.74689904585643    3.43800558927970   -1.44508551280810
H        -2.31832414538373    4.49600072910163   -1.54290186306602
H        -4.22964738581003    2.07501105074588    0.47224690745889
H        -4.61428540243438   -0.10921990368608    1.54242563399014
H         2.92149971158715    0.47179877470868   -0.16101321326940
H         0.62810626907850   -3.96754896966469   -2.12682313904668
H         2.33281141470304   -5.74679922196428   -2.08649792758220
H         3.79642773684347   -7.23459840927167   -0.83654217073996
H         4.61058539638914   -9.38925575801816   -0.26495450699307
H         5.91239766015718   -8.16423112825967   -0.32533049384246
H         6.10364463489367   -9.62372730570909    0.67850387576711
H         3.84745922899906   -7.11036250641126    3.43513670850616
H         2.14739319966043   -5.32034129102766    3.42007448143021
H         0.66011883650245   -3.79055714638567    2.13690306233709
H        -0.48718791652678    0.56388098089349   -0.93949966394104
Cl        2.10954561196948   -0.50465328032326   -0.05344759673562
