65
 energy: -111.549109359320 gnorm: 0.000474123849 xtb: 6.4.1 (afa7bdf)
Ir        0.59462581702495   -0.62834635993040    1.85534965598618
C        -2.07418011859831    0.78571177246546    3.40004860274417
C        -0.67612539233729    0.28730108333037    3.45339536389344
C        -0.27906391890499   -0.99844244989429    3.90057622492559
C        -1.20344186212015   -2.05517090214394    4.39785481137135
C         1.16637235121661   -1.02511398766987    3.94050630225885
C         2.02586080903793   -2.09377787866271    4.50061363825673
C         1.66024104841768    0.28522758298600    3.55410058173056
C         3.07818881984730    0.72223376085747    3.66514433994905
C         0.53144002717831    1.08427271912537    3.23287321056384
C         0.55782533033422    2.50082669845465    2.84888897248111
C        -0.17948249198479    3.43237154554033    3.57732437998459
C        -0.12234520161964    4.76344917945485    3.20865941723923
F        -0.83414246623184    5.66029648000545    3.91653780381978
C         0.62818541575610    5.20967844281294    2.13512836041132
C         1.34606257315311    4.25849776402884    1.43071288185808
F         2.08437975864025    4.65569174733823    0.37819283111505
C         1.33259743007319    2.91889984569935    1.76802231729749
H        -2.13623657917904    1.71356810011073    2.84045479690336
H        -2.42489222881264    0.96418449252537    4.41753592057692
H        -2.73511819921403    0.04727061151006    2.95185687041584
H        -0.74187088770345   -3.03738563989224    4.38275523121049
H        -1.47615026803561   -1.82554235776479    5.42829937279378
H        -2.11512512376821   -2.08399955294052    3.80775022598566
H         2.37715262490764   -1.76999199603727    5.48236369286806
H         1.48976153034147   -3.02921194637822    4.62352210726062
H         2.90589704858411   -2.25284632256527    3.88084724077818
H         3.71914664383775    0.13438874362980    3.01133961702577
H         3.18044678905248    1.77013607546379    3.40029219556485
H         3.42208527305190    0.57725198729878    4.68812396811244
H        -0.76362485733892    3.14238403680442    4.43490240834868
H         0.65492810112220    6.25167259208748    1.86148061469293
H         1.89731946913065    2.21202409463307    1.17979197832141
C        -2.61700429901223    4.22029434453683    0.23316235137163
O        -1.84877912552564    3.03053906498058    0.30701923721654
C        -2.45412331573143    1.85320046619571    0.08049421977217
C        -3.81364654164503    1.66904668581029   -0.17450567788687
C        -4.27533840991598    0.37496390148684   -0.38822006896280
N        -3.51319727291938   -0.69562548975953   -0.35247331447617
C        -2.21144433275446   -0.53495448747104   -0.08702602725465
C        -1.44048685112319   -1.76426023403686   -0.08703333978630
N        -0.35523068481778   -1.97071038391712    0.57001481850770
C         0.34169453349796   -3.17899758537896    0.33495671485798
C         0.84539354051404   -3.91523312585510    1.40590223727193
C         1.54888782009687   -5.08405835739077    1.17691379777928
C         1.77574586709918   -5.51766952876828   -0.11797597701548
C         1.28328837081987   -4.78039887187971   -1.19241217079425
C         1.56438650795103   -5.25111633602935   -2.57519209823758
O         2.22770005421335   -6.23050132261328   -2.82981519859454
O         1.01674551546346   -4.48572049005695   -3.51467204702006
C         0.55538170168603   -3.61741873869078   -0.96801578333568
C        -1.63748429841105    0.71499155859727    0.11716346440406
H        -3.05490229758354    4.34671568449626   -0.75934491309780
H        -3.40379358908104    4.23089165334399    0.99127793631054
H        -1.91670310296132    5.02989387591377    0.42461867160536
H        -4.50134007864068    2.49597674054409   -0.22392037405364
H        -5.31964154712539    0.19527368581729   -0.60098250391058
H        -1.87253579632545   -2.56412564365622   -0.68505945073161
H         0.65897263044159   -3.57743663958182    2.41307190749256
H         1.92671886580356   -5.65694558921714    2.00852411921336
H         2.33560345819444   -6.41725201583538   -0.32039090004385
H         1.22168490926954   -4.80864626599510   -4.41051144145499
H         0.20025563042750   -3.03796500968211   -1.80544197372257
H        -0.56720908126492    0.84238283918520    0.23429113787523
Cl        2.09226395450503   -0.38542234736524    0.14712170995662
