65
 energy: -104.466275944407 gnorm: 0.000405203512 xtb: 6.4.1 (afa7bdf)
Ir       -0.34987173136811   -0.94129063871273    1.75924498180253
C        -1.87800780420272    0.78255487781449    4.27511380207107
C        -0.62508249299971    0.22011620233472    3.69841599225493
C        -0.10460601904212   -1.08916179561065    3.97289776431602
C        -0.68878686167898   -2.05771891727541    4.94418961017790
C         1.21448397247979   -1.17316526657056    3.39759490732182
C         2.20465153425620   -2.24583873761001    3.69483234040585
C         1.45316615740559    0.02027017873739    2.66622171730992
C         2.74501265225076    0.43586019971726    2.05190934952384
C         0.29821352659087    0.89235324125077    2.84713447144652
C         0.26739075932595    2.32325463951435    2.50067854016823
C         0.14843175961493    3.26242878909474    3.52421931553284
C         0.16112848550468    4.60713257920035    3.20693506632101
F         0.04926284347606    5.50922368446609    4.20529891973617
C         0.28490539556914    5.06581263529877    1.90784445089940
C         0.39658631223637    4.10813318876346    0.91484194681490
F         0.51451026297123    4.51980620725484   -0.36502103660124
C         0.39047956048816    2.75268842214287    1.18197213535402
H        -2.13748835687390    1.72584344360591    3.80241516653740
H        -1.72802836599667    0.95967624783293    5.34046908554190
H        -2.70857601513545    0.08728380693931    4.17393236920072
H        -0.37807930641490   -3.07391403033783    4.71847902458007
H        -0.33930188388550   -1.81308118659519    5.94789918536924
H        -1.77390119401584   -2.00795190495140    4.94293581235829
H         2.66828442667473   -2.03179058601197    4.65848684767934
H         1.72958717252717   -3.22138471384597    3.75774014428527
H         2.98521695762855   -2.28555813092645    2.94178259165478
H         3.31330943443721   -0.42634448545605    1.71427073748514
H         2.58153223823647    1.10131125083685    1.20890439608968
H         3.33885791787402    0.96947854603451    2.79520197369038
H         0.06919797090895    2.96049388412752    4.55571600622854
H         0.29482828440597    6.11846363692949    1.67975158886466
H         0.45468514747707    2.04335781952840    0.37144482072191
C        -7.07217644076335   -0.57768314221472   -0.43024403588295
O        -6.08656234214570   -1.60191802751221   -0.41914101757864
C        -4.88557001359091   -1.35429143066927    0.08554946803997
C        -4.45797175364439   -0.13035157023461    0.62527460463375
C        -3.17836169822216   -0.02205921590800    1.12687570039783
N        -2.31342411249807   -1.03143721204410    1.14071228063494
C        -2.69639720855539   -2.21631105747659    0.59747485394916
C        -1.65086287639868   -3.20106384358062    0.59078235180675
N        -0.50268123366141   -2.83304187206898    1.06063951564816
C         0.57645034619525   -3.72316639297021    1.07266318287051
C         1.82786472481048   -3.28660717725654    0.63591299602066
C         2.89408081112775   -4.16172944117331    0.61965707705066
C         2.75439492218976   -5.47620043418969    1.06029483118063
C         3.91302394539303   -6.41775375396306    1.03043796620094
C         1.50430788175919   -5.89558514171106    1.51002900153243
C         0.42121588009642   -5.04031178463204    1.50872946900206
C        -3.96215358501299   -2.41011671100747    0.07383616457107
H        -7.94982167518872   -1.02809603886454   -0.88813713970611
H        -7.31276323571581   -0.25598037504035    0.58512922239633
H        -6.74579575966893    0.27584775291688   -1.02777825137936
H        -5.10430809334847    0.73026456545576    0.65523519980351
H        -2.83282905623172    0.91619679529992    1.53443289705358
H        -1.80762283046590   -4.18389247252889    0.16267809926047
H         1.93180000352872   -2.27525296082403    0.27311070627905
H         3.85351472709550   -3.82331064851566    0.25856475145597
H         3.95069345297309   -6.91980558211165    0.06302865234244
H         4.85166158136120   -5.88637280153052    1.16508122841188
H         3.81854324878394   -7.18045911925568    1.79891970217389
H         1.37921676232872   -6.90754096423426    1.86425597219492
H        -0.53735492056915   -5.37385014266994    1.87587538957770
H        -4.24697961083747   -3.35784118432225   -0.35170466224744
Cl        0.08893841814680   -0.30697070267380   -0.50380220278833
