75
 energy: -121.821932998224 gnorm: 0.000267049226 xtb: 6.4.1 (afa7bdf)
Ir        1.05412886350074   -0.66275613773124    2.22754962505689
C        -1.09391276076845    1.16373077613739    4.00821710574714
C         0.20511741978081    0.45903300393884    3.88920416014356
C         0.47533044765804   -0.86729915319254    4.39369604439028
C         1.87143825079556   -1.10015836145131    4.30022673603737
C         2.62073876457738   -2.27575357227632    4.80211439398596
C         2.49761343079990    0.08942255679164    3.74571850402196
C         1.47905547292002    1.06613286694914    3.51259243247278
C         1.67571882202064    2.46696756995963    3.13251460118382
C         2.61129268056122    3.24750473274429    3.81249261565022
C         2.77440100622333    4.57921983444320    3.48895158072367
C         2.02803474132357    5.16676708412652    2.46800419329586
C         2.21376852113528    6.58197166426130    2.11839641240731
C         2.23474969507801    6.98660932023621    0.78464372436955
C         2.41214486827220    8.31819257952368    0.45717630241808
C         2.56209371581415    9.26720784368866    1.45559817494426
C         2.53959529141679    8.87580294421097    2.78472584481706
C         2.37093574554454    7.54367261527667    3.11487346634894
C         1.10298592056393    4.37824289336009    1.78331733305515
C         0.92196983473218    3.05205416641368    2.11464373177800
C         3.95819836920769    0.25563837204270    3.56888200077365
C        -0.52904779608802   -1.74469993899289    5.05761076130196
H        -1.30759711342359    1.30797734406826    5.06914447118563
H        -1.90918654508869    0.57634531149662    3.59065395963233
H        -1.06055105183014    2.13655500549680    3.52757871949446
H         3.37426326912536   -1.94287191258706    5.51481383975912
H         3.15048041644620   -2.78566858021662    3.99594085220604
H         1.96195144772315   -2.98675121649108    5.29004607612008
H         3.18921498146292    2.81716438321449    4.61476040270945
H         3.50551768305467    5.16925793590243    4.02013988585314
H         2.13810180430147    6.25068208866970   -0.00011097513627
H         2.43607088651620    8.61797660298731   -0.58046464038736
H         2.69727438325073   10.30748960663569    1.19893281238649
H         2.65261167817427    9.61300358169111    3.56608808226305
H         2.33649448247590    7.24948120105297    4.15359065202918
H         0.51246969506264    4.81721979702038    0.99387535482902
H         0.22810658360297    2.44471690666559    1.55319822807786
H         4.40426791617067   -0.65300515652254    3.16779297120170
H         4.18202883044954    1.09416947322323    2.91507889966048
H         4.41860270305886    0.43746614114174    4.54155383675501
H        -1.53139203038241   -1.54167207626022    4.69379488178980
H        -0.30107822305089   -2.79660181552001    4.91154957269586
H        -0.51407855234818   -1.54414756812069    6.12952351765406
C        -5.44260786615538   -3.87866432384219   -1.14044537716887
S        -6.71804442247021   -2.65873950147584   -1.57410222292870
C        -5.79498198472220   -1.19127416398726   -1.42951510913820
N        -4.52915704399334   -1.28238811554780   -1.07789967818103
C        -3.79419158159731   -0.17727487660851   -0.96252623143192
C        -2.39528590516762   -0.34173688726580   -0.59090239983328
N        -1.88124508236042   -1.47065047859951   -0.39266379635809
C        -0.69746409754491   -1.97799369361120   -0.08442793761463
C         0.17504316215457   -2.41887823390167   -1.10373719508799
C         1.35563100288235   -3.04231105240211   -0.79588407833179
C         1.70625544480380   -3.28035775503433    0.53779190199043
N         2.94400506610884   -3.88799736712662    0.84808999764753
O         3.30034297329524   -3.87731266901253    2.02151439342963
O         3.60766489002910   -4.37418650349231   -0.05385914580110
C         0.83168587205893   -2.92993718844889    1.58446173122402
C        -0.36637912517217   -2.24897776876494    1.28563773895598
C        -4.31163937224108    1.09898127349589   -1.19159414548696
C        -5.64464396875429    1.21332143488150   -1.55838425500854
C        -6.41420095133734    0.06206930964681   -1.68644871451699
C        -7.77118377923701    0.14383456196216   -2.06025463360594
N        -8.87353161443438    0.23442995773306   -2.36597486345991
H        -4.63274362679495   -3.81103054649356   -1.85773382347693
H        -5.92721594503087   -4.84792093903881   -1.19158532587194
H        -5.08869671511729   -3.67223261905894   -0.13727754045322
H        -1.80768349319550    0.57534638355461   -0.49842963154660
H        -0.09999308706932   -2.24605138925807   -2.13128517153828
H         2.03919609485140   -3.35319858264350   -1.57138307561797
H         0.98935556181128   -3.39646430215944    2.55078182284020
H        -1.18183681523085   -2.23779863901056    2.00272603988583
H        -3.69419575575179    1.97632883507006   -1.09225300873863
H        -6.09087459450801    2.17826598426670   -1.74667223109039
Cl        1.55810421001083    0.15913314197856    0.18724882071459
