77
 energy: -105.338629309696 gnorm: 0.000363455592 xtb: 6.4.1 (afa7bdf)
Ir        0.15625157609409   -0.19470532745227    1.88848629199558
C        -2.01423772257456    1.50748590137698    3.92249672370393
C        -0.70487247195898    0.82746739299684    3.73982651131777
C        -0.54570107767891   -0.60893169876003    3.99425470237920
C        -1.65379738147498   -1.49703272611772    4.44310567554590
C         0.82604787799996   -0.91514507458897    3.91648012231505
C         1.50775564268949   -2.17004025147121    4.34842034230148
C         1.50856548725144    0.31481606102294    3.52139881917839
C         2.99468039894372    0.44590511908214    3.47301397923169
C         0.56591307521458    1.40299277353282    3.53340984785900
C         0.93630913962453    2.85404833417437    3.38950136957552
C         0.35532075826121    3.50542856505162    2.12811581043516
C         0.86006439413275    4.93963819731325    2.00030546950127
C         0.48517428617604    5.75261522968021    3.23714389043137
C         1.04269288626745    5.09924137310735    4.49953336471874
C         0.53698859520256    3.66474827942887    4.62953808562582
H        -2.82875190877808    0.87533860898558    3.57505686801025
H        -2.05885285019638    2.45922133515499    3.40235091086845
H        -2.17028426064694    1.68819789874304    4.98744292506171
H        -1.30122145183125   -2.51295534162493    4.59082249372245
H        -2.06470883855977   -1.12903832413807    5.38262677330093
H        -2.45636994348538   -1.51581514085660    3.70609468000231
H         0.82451816674597   -3.01296672505946    4.31420259983720
H         2.37282447982108   -2.39085854188679    3.72961713746640
H         1.85169910071987   -2.05019201350563    5.37643509801014
H         3.45927569807033   -0.47453801122646    3.13103007802212
H         3.30863165232315    1.27043639317178    2.83955695890112
H         3.35460013889937    0.64138319312456    4.48403256742135
H         2.02639357674286    2.91178452919307    3.30898664743224
H        -0.73426415637990    3.51596515285074    2.17463046180725
H         0.64569481758031    2.92954548648128    1.24602029829963
H         0.43511512775774    5.40355987787898    1.10809784195501
H         1.94654749020305    4.93696947121228    1.88761440982431
H        -0.60289352509364    5.82008185831871    3.31533118279065
H         0.87205135975450    6.76952200608159    3.14372730264760
H         0.74378876545105    5.67506927466529    5.37810911039925
H         2.13447414510137    5.10214666085091    4.45756831796253
H        -0.54723129618500    3.67795370328413    4.73907316760352
H         0.95926189468736    3.20057088972297    5.52306512438389
C        -3.04420942799848    3.67235111088741   -0.67568958981749
O        -2.10839365285992    2.61000127526970   -0.63079775464601
C        -2.41424944974696    1.49687788575904    0.05157900732817
C        -3.59516811937396    1.26186005726166    0.74661099505206
C        -3.76989263527740    0.02078450635597    1.35816123106694
N        -2.88066290121055   -0.94426522356021    1.36648839446771
C        -1.72947041143240   -0.74163177531589    0.69828094770093
C        -0.66005706297517   -1.71226845287571    0.79721545350491
N        -0.45731130514338   -2.83107828938577    0.34541713482780
C         0.63332488113081   -3.73144119496936    0.54074098269923
C         0.08817182782204   -5.10888248646186    0.92329190315794
C        -0.54567723131971   -5.10163742128748    2.31913013180264
C        -1.10106956608910   -6.45747285141451    2.65187552877128
C        -2.41650239150723   -6.78119602957235    2.34423803883156
C        -2.91492831304921   -8.04328670818009    2.61645741386725
C        -2.10179071848741   -9.00131310343577    3.19889305236172
C        -0.78836882572149   -8.68913631286867    3.50803649235144
C        -0.29336930218314   -7.42601080996596    3.23532825950399
C        -1.44048353068962    0.47573963364072    0.02837853226916
H        -3.25159994510668    4.05857041464560    0.32522765243677
H        -3.97665019335521    3.35764771460147   -1.15070838427452
H        -2.57427675177189    4.44816239386307   -1.27593965421592
H        -4.38605002375404    1.99104171255242    0.79120536155691
H        -4.69506449836952   -0.20044095006065    1.87417146051259
H         3.11483523494645    0.08873629202092    0.43766677652992
H         1.33196702491681   -3.36785101929931    1.30383050925838
H         1.15267413907590   -3.80995275854478   -0.41833353045933
H         0.90426337175657   -5.83214020161019    0.89662559739521
H        -0.65908049606974   -5.41337560075866    0.18967596010009
H         0.21615273129710   -4.83112185393053    3.05246633668402
H        -1.34165379166184   -4.35543186465077    2.34296075368052
H        -3.05702861856411   -6.03882276033868    1.89001060974974
H        -3.94079384168950   -8.28204039915436    2.37446028508723
H        -2.49031848440760   -9.98686532637480    3.41238549121473
H        -0.14986067247274   -9.43288156052060    3.96327667799827
H         0.73246196480318   -7.19042717690629    3.48104893916722
H        -0.65757734019901    0.56385514547581   -0.71579650608719
Cl        1.91073267991335   -0.16022240066838    0.10829954672839
