77
 energy: -103.715205616771 gnorm: 0.000886044433 xtb: 6.4.1 (afa7bdf)
Ir       -0.38746103963469   -0.59378263850124    1.74188732245866
C        -2.07257180480573    1.75929518729467    3.85279496543310
C        -0.93215184194281    0.87041494264466    3.49496190294906
C        -0.89384858112100   -0.51373602154201    3.93104026638828
C        -1.98507425250473   -1.19106810133513    4.68607329187270
C         0.44504474423893   -0.98309867802976    3.81540284840615
C         0.97463478635888   -2.20171438984101    4.49129960257838
C         1.19077328530468    0.02320628911258    3.11053627515110
C         2.66555323182616    0.01172023101217    2.87875599682730
C         0.34090284727915    1.20693399142007    2.98501181635171
C         0.89243139454326    2.55978434621866    2.63160345585073
C         0.11848601982361    3.33515804394614    1.56174920083029
C         0.83148742751617    4.65042924547519    1.26025735048853
C         0.95700763036089    5.49546862895827    2.52522269170428
C         1.71001700190211    4.72498035575627    3.60602384759319
C         1.00867784651844    3.40485012988526    3.91238547830524
H        -3.02666300382821    1.28805783162210    3.63213931604929
H        -2.02883473248499    2.71378378679091    3.34355374265861
H        -2.03296803870155    1.93542111538155    4.92928201928873
H        -1.86118659857933   -2.27002193248468    4.67377213705917
H        -1.96279759725580   -0.85701451405154    5.72405497838591
H        -2.96028562496363   -0.94159770568739    4.27693581224884
H         0.36108545217361   -3.07813986584488    4.29610905513504
H         2.00383570859300   -2.40719055464874    4.21317263106066
H         0.95284959351178   -2.02035729824261    5.56700452922482
H         3.05717993354086   -1.00100742046094    2.88155251842054
H         2.90983083812732    0.46963256763842    1.92342869230519
H         3.16408909810879    0.57657784133639    3.66672013014405
H         1.90333163017883    2.41192062597692    2.24067992891058
H        -0.89481034008510    3.55258595816206    1.89858368813570
H         0.05615905233418    2.73083029382074    0.65684751208099
H         0.27946883757753    5.20348991295252    0.49762152817879
H         1.82741403577436    4.44492946519585    0.86117609680352
H        -0.03921440601796    5.75611781999546    2.89107337250162
H         1.48073757381118    6.42685371808427    2.30028137958408
H         1.77254375037776    5.32528699447932    4.51600007939392
H         2.72963976601199    4.52997028757034    3.26570289703798
H         0.01472523577417    3.60900450418690    4.31032224319570
H         1.56930694782313    2.85377770013363    4.66985958804918
C         4.59044301210413   -3.11798786006085   -0.42338800320484
C         3.44021878453678   -3.48204639941995    0.50813137644171
C         2.09330737158778   -2.87466810405483    0.09080201888790
C         1.62281275918143   -3.36100213812768   -1.28693363265024
C         1.92381568392948   -2.37137813928286   -2.40848477755394
C         1.06209026793902   -3.23994116461331    1.19258703452299
N        -0.14559812229177   -2.47118458154393    1.06221709755866
C        -1.14802355452348   -3.01158976722376    0.45053169006862
C        -2.27359371696060   -2.18968125629822    0.12241929733347
C        -3.30932931290179   -2.61749282655276   -0.70970947447613
C        -4.30306469331704   -1.72085370979878   -1.03562558360638
C        -4.21669748655783   -0.40360714318175   -0.57221169814035
C        -5.30626791709954    0.44647589352571   -0.85714738552938
N        -6.24798028221325    1.06013902608204   -1.08814521320000
C        -3.10977113782830   -0.01999202266627    0.21546096377017
S        -2.79098832067677    1.59112121144242    0.77800123473760
C        -3.51580816314544    2.70336311834616   -0.45832808842611
N        -2.20237884633862   -0.92853954148236    0.60065685793372
H         4.66422854209436   -2.03954386306486   -0.53936375796315
H         5.52818023230149   -3.48269910945890   -0.00986873249611
H         4.46199213319019   -3.56671135106049   -1.40392009295542
H         3.69148541046065   -3.13099906507305    1.51114219558266
H         3.34708167827943   -4.56950382274086    0.55293488517175
H         2.18409251596197   -1.78554379586322    0.06728807523108
H         2.07668624745755   -4.32830574100976   -1.51095057029179
H         0.53983499214762   -3.50321784821996   -1.27442852778331
H         1.45088917110134   -1.41559247460955   -2.19689347602899
H         2.99033620545176   -2.20575015776038   -2.52223725315683
H         1.53467449703523   -2.74563523191974   -3.35315476212655
H         1.51432673099444   -3.02885810079073    2.15892752362936
H         0.84015296600100   -4.30937487229872    1.12573984236640
H        -1.14130219812602   -4.05332271753527    0.14914868771807
H        -3.32243781301220   -3.62726998446223   -1.08353408181283
H        -5.14642592408840   -2.01226315224244   -1.64242634930698
H        -2.96209135245195    3.63223295521775   -0.35246020438581
H        -4.56785799721974    2.87573123311800   -0.26411986799198
H        -3.36033829727408    2.29579463193741   -1.45156842532881
Cl        0.39716612692086    0.25598717862699   -0.31555201158140
