71
 energy: -110.792873553858 gnorm: 0.000192977418 xtb: 6.4.1 (afa7bdf)
Ir        0.22808584535044   -0.57226115568900    1.54433555473354
C        -1.35221508866250    0.68532078752264    4.21487384650340
C        -0.06308839542075    0.31299056939773    3.56588559846930
C         0.61706109813968   -0.93313906211217    3.72252908027092
C         1.87817417552132   -0.84493964097570    3.03184831217806
C         2.99584203622739   -1.82813137099994    3.13632025494224
C         1.99924240980892    0.47781917571085    2.49623809350458
C         0.78004311309239    1.18301386749944    2.77522153088637
C         0.55562627105791    2.60698271043406    2.49552568614710
C         0.16485914257248    3.48126663308438    3.50850202352079
C        -0.01170173559604    4.82458706670937    3.24199628684556
C         0.20006915235363    5.33534532998726    1.96234289842342
C         0.02650926648162    6.77013958672005    1.69043617964928
C         0.95969171932918    7.46146126764095    0.92078660554054
C         0.80925922603319    8.81548070103812    0.68358628339184
C        -0.28083539277616    9.49653915146014    1.20088248925484
C        -1.21932928951221    8.81611922677891    1.95979129315854
C        -1.06548333574898    7.46423558932522    2.20685179449087
C         0.59171119518028    4.45833363071244    0.95200231520938
C         0.76556498994507    3.11390751599787    1.21192095784393
C         3.22400444352075    1.05012722607249    1.87662626545465
C         0.18265447687276   -2.06567298035527    4.58629366569446
H        -1.17081936985212    0.92543934020952    5.26315570943862
H        -2.06000330419803   -0.13991498524739    4.18459064153638
H        -1.79511227036301    1.55303832536657    3.73364661104588
H         3.58804035702408   -1.59921303830279    4.02327825175189
H         3.64577642663990   -1.77052000554022    2.26811077699343
H         2.62171944930660   -2.84347943889905    3.23151345379171
H         0.03158293881725    3.11449576105923    4.51385659422111
H        -0.29225596290534    5.49432850486621    4.04108466899090
H         1.81984146400576    6.93975426849870    0.52677423841497
H         1.54640814672780    9.34374348548744    0.09620523094451
H        -0.39753678807173   10.55397241493245    1.01395210265491
H        -2.07306555759842    9.34282762824580    2.36103103651987
H        -1.80778715134546    6.93677706269647    2.78829000477246
H         0.74558995331784    4.83284556675391   -0.04875794754292
H         1.04855108354965    2.44245553028947    0.41437556384969
H         3.32965037969619    0.71804100240909    0.84378426077712
H         3.17695746441002    2.13643917213745    1.87994801300506
H         4.10327838141725    0.72183312462169    2.42733795553359
H        -0.89692085087310   -2.08203351302064    4.70563527420132
H         0.50966514286757   -3.01962179100655    4.17944904384277
H         0.63144240750270   -1.94934831008376    5.57345342700844
O        -1.42681745387808   -7.01328111886992    2.85150358046637
C        -0.26159227807687   -7.02485430978925    2.52280058348913
O         0.52481636282008   -8.08257331256074    2.67797452579330
C         0.42876868525258   -5.85990249171014    1.90555290656644
C         1.76587932875873   -5.91930154026324    1.51957054184717
C         2.36405655724725   -4.80895685546833    0.94534161208619
C         1.64622722761084   -3.64143260555831    0.75961818093454
C         0.30342126429731   -3.58413137770557    1.13505052719411
N        -0.41973114723135   -2.40024168224038    0.92301929369761
C        -1.55310907842056   -2.43874031049870    0.30069293605037
C        -2.23240360407992   -1.18916745352914    0.10825680143075
C        -3.42677275152076   -1.04049175742896   -0.59738528438281
C        -3.96669703657679    0.22455493376947   -0.73964354085485
C        -3.29331370297026    1.30588993397310   -0.18192663970803
C        -2.10964698506729    1.08595394214684    0.50253242992883
N        -1.59197268215103   -0.12816532294428    0.65618936357722
C        -0.30579021471489   -4.69527380325905    1.70702576655620
H         0.05162462665264   -8.83321307845373    3.07946587008478
H         2.32391202393798   -6.82890656098056    1.67075377472650
H         3.39739139808099   -4.85420850316004    0.63998805527814
H         2.09573277498076   -2.77587628056403    0.29766262092759
H        -1.95766133261677   -3.36323571301762   -0.09555743325763
H        -3.90495542360585   -1.90763395921210   -1.02329521278736
H        -4.89019703487448    0.36993067471692   -1.27761919319833
H        -3.67787185804357    2.30830323430566   -0.27345207891761
H        -1.55898887367677    1.90935848630002    0.93572783608430
H        -1.33686037579024   -4.66645154244198    2.02541642872492
Cl        1.13860692018995   -0.29705855711792   -0.63433518030280
