83
 energy: -118.425667066397 gnorm: 0.000632454907 xtb: 6.4.1 (afa7bdf)
Ir       -0.64308816731370    0.13101213269489    1.84124806767891
C        -1.63395270548223    2.63208320563405    4.08157010844112
C        -0.75124235417050    1.50708925472708    3.65496425835571
C        -1.04912541165517    0.13055639342448    4.01963406326911
C        -2.27734666630648   -0.29757664195004    4.74823793401932
C         0.11921314063445   -0.65040028612064    3.80810465460507
C         0.33595712418523   -2.05094407704544    4.26306111336321
C         1.09873406005307    0.19778299563052    3.18502307192444
C         2.52208337319260   -0.17698030879445    2.94547587934938
C         0.57909463672552    1.55319835031978    3.16155617906972
C         1.45364639016026    2.74343919333800    2.88453864187244
C         0.89734875768794    3.77105033301522    1.89500945946767
C         1.93355471874105    4.86567342169847    1.65503837487936
C         2.29898292062977    5.55524550621397    2.96764161024274
C         2.82798679628139    4.53794980588767    3.97518908180799
C         1.80275325825250    3.43319046256631    4.21554811361739
H        -2.66438730160764    2.44889537966759    3.79004802893582
H        -1.30933869511379    3.58006616130205    3.67086966870419
H        -1.60137082868082    2.69777447683206    5.17001295335562
H        -2.45930584017743   -1.36143658931883    4.62414302855603
H        -2.15059349677596   -0.09651421390523    5.81254968184814
H        -3.14859105718827    0.25137393031333    4.40181189735915
H        -0.60249291771590   -2.59102990159926    4.34848512260185
H         0.99552286923912   -2.59414696988014    3.59079445756657
H         0.80432906728592   -2.02699924887862    5.24743935885279
H         2.63290797481494   -1.25428112732264    2.86380116479268
H         2.90349159034196    0.27838566639439    2.03493943553894
H         3.13345104592826    0.16930189141910    3.77943276968796
H         2.38689127662522    2.36940233979721    2.45353093221061
H        -0.00828054202167    4.23360966748359    2.28440022380071
H         0.65565552091892    3.27365199036435    0.95556998721819
H         1.53737501712039    5.59757069945990    0.94839293310145
H         2.83177814373392    4.43047849993755    1.21020535000228
H         1.41566518032924    6.05019213689771    3.37895137440182
H         3.05358536805762    6.32318221123001    2.78595669799208
H         3.05955745716328    5.03391179014025    4.92020887160186
H         3.75412623357297    4.10151606656608    3.59347665066221
H         0.90329254258834    3.86349339118009    4.65615523404824
H         2.20527854844177    2.70087344286592    4.91797854993289
C         2.33422119096404   -6.90123993255404    1.47985931183672
O         1.27170028652003   -5.96772217574405    1.55811490865869
C         1.47466920749506   -4.70646867093087    1.13277425421095
C         2.67729089001147   -4.21862964282570    0.62356198693420
C         2.73639404738912   -2.89127731794455    0.23483230393992
F         3.90636935115453   -2.42573568753031   -0.25342872612806
C         1.66990392098022   -2.02271359458267    0.33110744528144
C         0.46647021881080   -2.52256545310587    0.82649251049299
N        -0.65384734710278   -1.68275194248017    0.92750952422327
C        -1.79867181156646   -2.10765372719366    0.52051433300540
C        -2.96073100960432   -1.28039634769282    0.69067237576751
C        -4.22556386472221   -1.80362217718558    0.47945925834122
C        -5.32124978086851   -0.99887724402012    0.77947529795914
C        -5.10319339968078    0.29843407847069    1.15988706874898
C        -3.78701724850077    0.83084785627617    1.22997303104801
N        -3.58584416669027    2.14560954980867    1.46543457700682
C        -4.68137410242992    3.04699069522702    1.79023027053698
C        -5.30840366194270    3.63670272422736    0.52507545540883
C        -4.23248096609564    4.37090431002912   -0.27357059205973
C        -3.04871498257196    3.44041145729065   -0.52856340983513
C        -2.52181372989351    2.87035400258792    0.79106274709587
N        -2.72952578037557   -0.00542024963011    1.09695856480469
C         0.37361104761135   -3.85026516448527    1.22759637840680
H         2.66101136126245   -7.04364230621057    0.44671292259204
H         3.18113487792056   -6.59029070287999    2.09684640735883
H         1.92783506689170   -7.83426436999665    1.86391851897956
H         3.55602342119459   -4.83267382169547    0.52194656528138
H         1.75365790639620   -1.00147695358342    0.00195544636684
H        -1.90523613870347   -3.07843990029546    0.04753621137667
H        -4.34479712951379   -2.81355153972310    0.12689898050724
H        -6.32543405960469   -1.38176068752404    0.68972421469715
H        -5.94839678033524    0.93345466922939    1.35654854374021
H        -4.24909861956770    3.86239794492746    2.37717192146751
H        -5.42024828330174    2.54711852282702    2.41475531755879
H        -6.11209606075149    4.32078196388030    0.79922700873262
H        -5.73281019131610    2.83951491122928   -0.08799897691752
H        -3.89397515431593    5.24494747981497    0.28709843851518
H        -4.64304007140034    4.72321436608490   -1.22102295828874
H        -2.24271255409824    3.97722962717812   -1.02852464529709
H        -3.35519407969682    2.61822937336003   -1.17879928699744
H        -1.67960967828137    2.21059526567730    0.60188775220936
H        -2.19742376497232    3.68741312243066    1.43514966965835
H        -0.54014984321309   -4.24346997424443    1.64231112285297
Cl        0.13139643814454    0.90552323130534   -0.29186403485483
