74
 energy: -114.140193192076 gnorm: 0.000393882900 xtb: 6.4.1 (afa7bdf)
Ir       -0.54915046934168   -0.48694727499453    1.46153286239447
C        -1.97132568195745    1.32632539114798    4.01543243264076
C        -0.76663717303587    0.67732746701971    3.42742658932182
C        -0.37251058028868   -0.68565397538052    3.66800402286255
C         0.94676282408163   -0.86926962209239    3.11969488085072
C         1.84448216973513   -2.02226445129045    3.40565361075443
C         1.30035629561557    0.31944822297196    2.42208394044424
C         0.23429993361465    1.29231418300215    2.62541140418827
C         0.36437625364816    2.73329933807566    2.35366189801982
C         0.32821404974438    3.62464854334800    3.42532212738305
C         0.51787744536751    4.97592811790884    3.21784223992494
C         0.74547746927735    5.47874140484001    1.93771386742050
C         0.96676161311607    6.91659883420786    1.72245075286906
C         1.93997559978690    7.35553095366026    0.82663656058773
C         2.15810706989491    8.70672996338189    0.63012024666671
C         1.40406052417026    9.64215311907728    1.32012421865871
C         0.43103371007718    9.21714431860403    2.21004166102223
C         0.21566093087445    7.86621241514005    2.41252286435049
C         0.76568585092288    4.58436602737349    0.86855779413852
C         0.57901003881025    3.23134228224956    1.07088226139104
C         2.63215530029064    0.63705071050852    1.83649568781561
C        -1.06565366917736   -1.61981032218725    4.60118768728264
H        -1.83111620194780    1.41750492133606    5.09284436779458
H        -2.86441875430444    0.72735154485330    3.85100927962515
H        -2.12730417841890    2.31685254047188    3.59845758614018
H         2.37029954612007   -1.82511764115190    4.34077230110843
H         2.58464356109037   -2.15456467085768    2.62205649001615
H         1.28626605125399   -2.94726654760810    3.52008709285346
H         0.18318211571232    3.25210972610197    4.42770785785477
H         0.51601752198501    5.64897559428111    4.06206759257724
H         2.54385135463840    6.63318729953128    0.29680132009170
H         2.92071875753930    9.03287874485406   -0.06243912158164
H         1.57402027038893   10.69754006850831    1.16476355432599
H        -0.16194506484063    9.94299519559624    2.74782946198419
H        -0.55523032379724    7.54522675971559    3.09796362062636
H         0.91468863472351    4.95554123691937   -0.13424500299769
H         0.57880661815967    2.55704979037645    0.22756931330092
H         3.15544954301223   -0.26608950150103    1.53577648942424
H         2.53075610625790    1.29216548303844    0.97563868972404
H         3.23397522604418    1.15477947140986    2.58442033589050
H        -2.14340061925399   -1.48860944521182    4.55630572152923
H        -0.82259885307473   -2.65426520337846    4.37514354142869
H        -0.74180728372900   -1.41194917208359    5.62177137730050
Cl       -6.21104904087480    4.02465954010088    0.33645148161671
C        -5.15174118439313    2.66293347012272    0.45957659293868
C        -3.79644878603105    2.87825787708870    0.76760124994655
C        -2.94147647298719    1.81836131211502    0.88718875406056
C        -3.39240701072776    0.49775921480682    0.68902769686495
N        -2.54073410120075   -0.54834217185454    0.81174065142521
C        -2.95468443646974   -1.77577161014463    0.45842399581704
C        -1.92399219299547   -2.76675408352867    0.45573811723544
N        -0.73444740770036   -2.38135310065024    0.79639661050990
C         0.33674199096324   -3.28195492489028    0.75703122669295
C         1.54974577590042   -2.87022439826218    0.20395340876047
C         2.60738323685402   -3.75739881994900    0.13406206473363
C         2.47697141900907   -5.04435674496815    0.63503573483695
C         1.27685473993122   -5.44853704610614    1.20095780597673
C         0.20441462002159   -4.57855570344356    1.25811251680191
C        -4.28431787021797   -2.04662807593132    0.07619978812577
C        -5.18932624907833   -1.02524551471452    0.04620609555109
C        -4.75693209644007    0.29122357163620    0.32691896019967
C        -5.62483842929167    1.39455474713739    0.23779525178957
H        -3.43930315411518    3.88614965299189    0.90201738035185
H        -1.89526578513949    1.98793521686201    1.08547485875824
H        -2.12042564538833   -3.77491354005520    0.11008208275517
H         1.63057497299053   -1.87156329815367   -0.19751360138889
H         3.53824462967029   -3.44347985397460   -0.31235469273892
H         3.30863662281544   -5.72966341717392    0.58716785086101
H         1.17564450974933   -6.44659469713100    1.59811670583684
H        -0.72375179037040   -4.88561429145808    1.71587054719998
H        -4.56085747718177   -3.05713210801881   -0.17586552361552
H        -6.22222241892999   -1.19902978385570   -0.21201544880643
H        -6.65832834351285    1.23036437130368   -0.02193880765368
Cl       -0.05009415763279    0.20010236832547   -0.77199983544754
