88
 energy: -148.771412674525 gnorm: 0.000750810698 xtb: 6.4.1 (afa7bdf)
Ir       -0.56645208298324   -0.54099399740473    1.29679396433607
C        -1.99496968049517    1.03254583666582    3.96521252945072
C        -0.78620581316544    0.45606865480884    3.31882583919453
C        -0.36563221774807   -0.90411048179589    3.47594877675826
C         0.94401480091889   -1.03277365030095    2.89070509490097
C         1.88075165008495   -2.17136504706363    3.08533909514649
C         1.28958135534084    0.21340141857747    2.29444426445605
C         0.20803796735541    1.15174390108771    2.55023934124890
C         0.34594810689881    2.60242100606610    2.38717483917267
C         0.13025499109000    3.44354390104613    3.47909904845749
C         0.39608414544263    4.79348780898942    3.38686134496268
C         0.89114675686965    5.35010174038868    2.20818290305831
C         1.23693826262667    6.77661548408080    2.14773318452139
C         2.36426899044976    7.20409297958338    1.44734121103165
C         2.70910743759585    8.54283854216844    1.41488601513386
C         1.93173544786164    9.47937921043953    2.07683685764393
C         0.80502802801269    9.06732050603216    2.77056286691800
C         0.46088684479715    7.72803503244095    2.80899106653079
C         1.07897190583093    4.51107998641225    1.11091092218812
C         0.80818601482283    3.16006931698546    1.19568236356954
C         2.63291880162953    0.53296211709605    1.73850044463509
C        -1.03605200937736   -1.92123504150978    4.33370930934839
H        -1.82992586900274    1.07014701084883    5.04290861193480
H        -2.86935446536924    0.40801429012477    3.79309359679860
H        -2.19030193631364    2.03596782789175    3.60125015942327
H         2.44840966617864   -1.99032599239923    3.99956491650276
H         2.58586098134126   -2.24923958876441    2.26297370874279
H         1.35558358039527   -3.11529123408114    3.19997434542175
H        -0.19403299257413    3.03330887060104    4.42185867669122
H         0.25639003219043    5.42151521236600    4.25370740356702
H         2.98920601344225    6.48041305229686    0.94556751650803
H         3.58995962596031    8.85756489935439    0.87455390923258
H         2.20156345711451   10.52491597512915    2.05280120304910
H         0.18890960489341    9.79294942545013    3.28133649802416
H        -0.43730345979910    7.42404631092085    3.32584842579074
H         1.43092215776911    4.92543205876057    0.17830878182608
H         0.94471117355034    2.53000391456073    0.33027219049492
H         2.81502735407234   -0.00377942592424    0.80813348694740
H         2.72802608652549    1.59833950420590    1.54849550534266
H         3.39674236903131    0.22877943286156    2.45359532467653
H        -2.11602655241362   -1.80363013822860    4.31550800728799
H        -0.78080862626734   -2.93056517374050    4.02096006571033
H        -0.70067551737043   -1.79537790233829    5.36376028122356
C        -1.09753147998106    7.91682967549984   -0.45894466030332
O        -1.35545742038590    6.52371787227385   -0.32035614558869
C        -2.06043944832954    6.13897102484819    0.74473959874327
O        -2.46625460681792    6.90091284579282    1.59386104907552
C        -2.32463543405447    4.67701642193197    0.74748421838594
C        -1.75084614871183    3.82847970385513   -0.19376763886219
C        -2.05984089900256    2.48196549086574   -0.19232547417849
C        -2.96593452156313    1.96905864128606    0.73232285713302
C        -3.43798847927501    0.58189234103407    0.57669438419861
C        -4.79852819669957    0.40453870395085    0.30259265477393
C        -5.28709284134662   -0.84482277074987   -0.03262877495483
C        -4.39344358524765   -1.90056601970557   -0.10078885983791
C        -3.06258108926434   -1.67569588672829    0.23930051278705
C        -2.09083809065235   -2.73026300650483    0.22867713064180
N        -0.88277057529688   -2.46747318702743    0.60095530239703
C         0.03444314959972   -3.52419048365244    0.70880659901542
C        -0.36783149592580   -4.67404644598908    1.39059905629415
C         0.50099433134491   -5.73611969151527    1.56882847523034
C         0.01216079738711   -6.93722259034582    2.32136015530451
F         0.97933671015961   -7.81010392966838    2.62705076822378
F        -0.92268278415503   -7.62912534004849    1.63338831817986
F        -0.58005768429165   -6.59878439117739    3.48666003720625
C         1.79234251611307   -5.67972252090278    1.04706838362136
C         2.19377087142216   -4.55338411702067    0.36929661671953
C         1.34443301557764   -3.45174511281752    0.18329936905995
O         1.84280605249163   -2.42499104098623   -0.48575311949813
N        -2.59386449867270   -0.45449285415967    0.60352827740314
C        -3.55370305787827    2.82454180442422    1.66496621053337
C        -3.21394909281418    4.16200065864391    1.68838321605042
H        -0.52559080430355    8.28235592491677    0.39528607961869
H        -2.03637989004415    8.46969748948086   -0.51978410776438
H        -0.52810537203063    8.02618013142877   -1.37728226549481
H        -1.08142044671165    4.23141198928496   -0.93530347880461
H        -1.63648046540390    1.83500949016561   -0.94231860475048
H        -5.44548380558640    1.26677693152448    0.32918155008234
H        -6.33221335400157   -0.98842457954476   -0.25682748108193
H        -4.70915542724389   -2.88694725174633   -0.39880591645517
H        -2.37741073148562   -3.72080008385209   -0.10846291666426
H        -1.35894458748568   -4.71590986784478    1.81794894378088
H         2.46771787357637   -6.50924043193455    1.18036227064840
H         3.18707425916603   -4.48422524083166   -0.04343035078192
H         1.20322238727467   -1.69994382483935   -0.69853005154664
H        -4.27864235953989    2.44161362063030    2.36696172619434
H        -3.65098605928933    4.83454246376995    2.41050246940112
Cl        0.09137138202419   -0.04125811065443   -0.94646728209951
