51
 energy: -81.028880660566 gnorm: 0.000767260756 xtb: 6.4.1 (afa7bdf)
Ir       -0.70267218975257   -1.12856148890060    1.10830697422569
C        -2.09045907639859    1.30808551677544    3.09774878738031
C        -0.95235148617631    0.40889191813733    2.75298274780524
C        -0.73366234158589   -0.90654569796031    3.32199297566182
C        -1.59669883602963   -1.55091545223582    4.35119671081036
C         0.58444678695768   -1.33450985619202    2.95191456113059
C         1.29295166198217   -2.52305279247040    3.50025201770248
C         1.13117525230905   -0.35223656632027    2.06654016845904
C         2.53717566140199   -0.27867806925980    1.57732634038913
C         0.18854107383641    0.75137429379802    1.98666500524681
C         0.48910284613780    2.05836672095598    1.34177931677898
H        -1.82909608327428    1.87365173267049    3.99325878888617
H        -2.99320644403108    0.74332314255639    3.31439393712844
H        -2.29077534882960    2.02173645408630    2.30236236908024
H        -2.64793472281152   -1.33907537243270    4.17731783119434
H        -1.45106270749569   -2.62708484390199    4.36967847862659
H        -1.33104869787318   -1.15692554406119    5.33295219188801
H         0.60828207498218   -3.34700442810722    3.68193311971949
H         2.08033609307111   -2.85997287525675    2.83239961104587
H         1.74797046599629   -2.24700062838949    4.45208296323702
H         2.57424149623251    0.13760447570162    0.57368099696213
H         3.00836128646739   -1.25681012490929    1.57635870317116
H         3.10768324810123    0.37856322208394    2.23440375206471
H        -0.37360027261846    2.71708854973885    1.35212624302309
H         0.80572146896804    1.91444846503237    0.31023930011623
H         1.30600342404253    2.54133169014579    1.87815023851727
Br        4.43322733245479   -6.39570678980606    0.62573979066037
C         2.83580007923863   -5.33095686286634    0.55762897505742
C         2.88452978187632   -4.05769578613022    0.00510938007693
C         1.73710724825110   -3.29049051391785   -0.03544108880901
C         0.53673708696750   -3.80174432027971    0.45815442742551
N        -0.62270075665495   -3.01564277592104    0.39615696998681
C        -1.69642994656051   -3.49381072966572   -0.15364389506370
C        -2.84070761016072   -2.63782514565434   -0.19168802113272
C        -4.03768167440948   -2.94359599008986   -0.84696560947947
C        -5.05901508465291   -2.01760897048322   -0.85782750986936
C        -4.84657017517898   -0.80001500489115   -0.21120766244248
Br       -6.20667984197589    0.53036563753418   -0.16796550306736
C        -3.63527827055014   -0.55319268378615    0.42038365262594
N        -2.65831779744012   -1.44903237640975    0.43876539118745
C         0.49834464882091   -5.08487667774445    1.00399475294288
C         1.65068037451851   -5.84572504263353    1.06323937466658
H         3.81136198250810   -3.67448690283841   -0.39143968457807
H         1.74513497001144   -2.30766024368406   -0.48016766685371
H        -1.71497645062883   -4.47852780349506   -0.60532472112740
H        -4.14729925862864   -3.89307953813851   -1.34627991458146
H        -5.99462651062624   -2.21991621059643   -1.35451033976828
H        -3.45994082469141    0.38910651687519    0.91731325067512
H        -0.42528301376799   -5.47362912178970    1.40392276829085
H         1.62850532261616   -6.83301760425890    1.49564370541200
Cl       -0.30869024495020   -0.38977350059064   -1.12313695248983
