62
 energy: -108.915085960671 gnorm: 0.000787114272 xtb: 6.4.1 (afa7bdf)
Ir       -0.32132727786336   -1.12137987186042    1.51094826480697
C        -2.03332255356402    0.57162311269724    3.91143709810090
C        -0.72865262505611    0.07683115684089    3.39375568785864
C        -0.12285740714658   -1.17709223958243    3.73961749212732
C        -0.66276179704687   -2.15157942741444    4.72762027997743
C         1.20757046971601   -1.19741694113767    3.18483990935503
C         2.26301470125683   -2.18634493612109    3.53642965496520
C         1.38760151057300   -0.00934197403841    2.42179988389214
C         2.66312194441429    0.45628397218296    1.81573048890262
C         0.17051831089327    0.78218934393555    2.53522609122313
C         0.04134997415714    2.19454677819677    2.13257010108404
C        -0.15698372720783    3.16079532643528    3.11756368950764
C        -0.24534931221690    4.48925422658946    2.74654672643290
F        -0.43428993487358    5.41704839690039    3.70691279990682
C        -0.14821471343256    4.90397043045737    1.43046089626621
C         0.04697415387106    3.91982728743865    0.47705062527743
F         0.14282161655786    4.28673789894847   -0.81713273188907
C         0.14340206852327    2.57914699049891    0.79844608791354
H        -2.33864848454033    1.48151369280711    3.40265912684210
H        -1.93084560887231    0.78872976943055    4.97490849007955
H        -2.81289396368459   -0.17971991869267    3.80719499012713
H        -0.30773619632267   -3.15699443553308    4.51951070944999
H        -0.31975647728269   -1.87311186611341    5.72472950062257
H        -1.74868079644366   -2.14743375328027    4.73054357211996
H         2.71386376688514   -1.88790448760610    4.48352175782512
H         1.84888160128349   -3.18345205382718    3.65737857753781
H         3.04414807595178   -2.21811184530464    2.78368859962598
H         3.24365259020282   -0.37882724414057    1.43283065494149
H         2.47869771237658    1.15824379919479    1.00804757558143
H         3.25573122353410    0.95980313989676    2.58032700463566
H        -0.22106980513571    2.89521028234878    4.15999276733411
H        -0.21961763243212    5.94405053206682    1.15967870204839
H         0.27490028772300    1.84639540400344    0.01738368717855
C         2.36465863682586   -8.19069452154224    2.43635017647069
O         1.31533017909492   -7.25260055741673    2.26910698784058
C         1.58234811094104   -6.05951854049990    1.71237434805314
C         2.84148562332715   -5.64783819224366    1.27277259210185
C         2.99119260264679   -4.38457008110525    0.71973324456706
Cl        4.55894915540208   -3.88804828521670    0.16360670561948
C         1.92852292528279   -3.50837914478117    0.60494444597134
C         0.66977824220971   -3.93026514305535    1.03560425578291
N        -0.41249809534385   -3.04704373612185    0.90013561996320
C        -1.51072210644930   -3.44102369972409    0.33712852347384
C        -2.54613204611702   -2.46150898714260    0.19616640402096
C        -3.75356033332187   -2.66290805694158   -0.47823671376394
C        -4.64163866441865   -1.61460396495595   -0.60546666417125
C        -4.28849024375804   -0.38256358673712   -0.05451736020315
Br       -5.44415816743665    1.12131862777161   -0.19691081356108
C        -3.07796643347277   -0.24465042554885    0.61230145754379
N        -2.23322655906340   -1.25846121140976    0.74239949490671
C         0.49177234829082   -5.19299988525525    1.58145408627807
H         1.90275392473412   -9.06157798277697    2.89643968490628
H         2.79924159272842   -8.47479781032593    1.47480916488938
H         3.14314299527140   -7.79887929709125    3.09547325105101
H         3.70178171115886   -6.29004861689215    1.35303768004887
H         2.04702439990069   -2.53675562752134    0.15450455974552
H        -1.62273540899222   -4.44411368356181   -0.05728079392791
H        -3.97529324274138   -3.62966099334395   -0.90097520452553
H        -5.58169142666620   -1.73642057118315   -1.12015498012451
H        -2.78854637329263    0.70441272643872    1.03830386076319
H        -0.47191909170525   -5.51833502106570    1.93778997304663
Cl        0.25936305016753   -0.59607727691246   -0.74365974846388
