72
 energy: -111.639396689596 gnorm: 0.000818972675 xtb: 6.4.1 (afa7bdf)
Ir       -0.97443357952925   -1.41147500290693    0.94505646795963
C        -2.11839172074500    0.74617281887469    3.39921305905402
C        -1.01092185518934   -0.03256477146940    2.77584964067662
C        -0.67263741291622   -1.38574242607249    3.14491197470921
C        -1.33509324531020   -2.16437208072704    4.23072630459852
C         0.59981660112199   -1.70460615915061    2.54527882531294
C         1.43999616620734   -2.88272000175716    2.89803666279576
C         0.97107295009873   -0.61767598981048    1.71075161180124
C         2.26013266178249   -0.43584419716680    0.98716104408092
C        -0.03060849931736    0.42631694406210    1.85595923925816
C         0.14640229878531    1.80798987116070    1.31965173859109
H        -1.85827794342264    0.94567334618757    4.43912104629244
H        -3.05046322166345    0.18615154363352    3.39040257293456
H        -2.27775351325345    1.69423841426401    2.89635918349680
H        -2.40094081052892   -1.95860913590717    4.26556365330841
H        -1.18183241450881   -3.23179355436398    4.09975333012325
H        -0.90255784071033   -1.87752078454011    5.19006668180850
H         0.83420242169635   -3.76354834542545    3.09323522029248
H         2.15191862363663   -3.11277281263913    2.11040327767512
H         1.99970739892753   -2.64814466622568    3.80448688921424
H         2.09149763045999    0.01990821917420    0.01392835512271
H         2.77527623791575   -1.38139177692918    0.84440582457065
H         2.90772343222235    0.22660525170506    1.56269881191625
H        -0.69290002260466    2.44904806203652    1.57308311808739
H         0.26558944105859    1.78936420259050    0.23727499543960
H         1.05224830675667    2.24110068346581    1.74393813925441
C        -8.23595609442465    4.19769076492552   -0.56356646263483
C        -7.69835486717769    2.77685671739025   -0.50132724381917
O        -6.30735910892837    2.85126520508791   -0.20792936804173
C        -5.58866882345547    1.73051174221988   -0.09295109234133
C        -4.20540698762791    1.92563718253315    0.16525632967056
C        -3.36249899324330    0.87012853791667    0.32778552710848
C        -3.83283162516784   -0.45732119234212    0.22766724379743
N        -2.98875556056089   -1.49923951193337    0.38715911785063
C        -3.42567938864856   -2.74234248782040    0.11211185230548
C        -2.40718883039101   -3.73993681550606    0.11531584729844
N        -1.20140248240583   -3.35094899494468    0.39801288186652
C        -0.14277831044424   -4.26339752210681    0.35208932506517
C        -0.26379830254236   -5.53783037453021    0.92435323855654
C         0.78596591459854   -6.42234984022765    0.86394010406375
C         1.98736855927920   -6.08090078651278    0.22769269053339
C         3.12230300900779   -6.96899589547100    0.11276280254697
C         3.05903211054460   -8.34479938164822    0.68208557437529
C         4.22564374558024   -6.51146213984881   -0.52436713449813
C         4.31983049840270   -5.18208874448057   -1.08659690004784
O         5.28876177519168   -4.72657749942594   -1.65554671500752
O         3.22426150777151   -4.37314112573452   -0.95455638023514
C         2.09901240315466   -4.79599361418008   -0.33380240359498
C         1.04378930642786   -3.89128945350202   -0.26313363852367
C        -4.77029814941516   -3.01497834941574   -0.21390859725940
C        -5.66386246580874   -1.98630224194811   -0.27820659260749
C        -5.21122879668233   -0.66044852501648   -0.08747043898805
C        -6.06883835380191    0.44137812528735   -0.22190662001626
H        -9.29674793707983    4.17706578204926   -0.79487895902853
H        -8.09009694951746    4.69604529222920    0.39077575348121
H        -7.71583360515387    4.76128876609937   -1.33328983733739
H        -7.84348593832472    2.27100466945948   -1.46406437180234
H        -8.21088256275065    2.20870357205971    0.28466369464774
H        -3.84978952737181    2.94221256879439    0.21514938439856
H        -2.30688693149540    1.02496659623544    0.47431069980132
H        -2.62319909768800   -4.75784141476836   -0.18737283682523
H        -1.17460428837575   -5.81122438629602    1.43350356648778
H         0.68334414437326   -7.39651484433919    1.31294877043469
H         3.98420912650392   -8.87865953660069    0.48646453359930
H         2.90088055529932   -8.30107251304189    1.75817319795056
H         2.23415507899055   -8.89938150899463    0.23849917020472
H         5.10561369763809   -7.12235315567709   -0.64780652712071
H         1.14347612332236   -2.91899304854437   -0.71932949163223
H        -5.06522151289875   -4.03373322510452   -0.40375385883189
H        -6.70439919317230   -2.16373413578653   -0.50148239587408
H        -7.10445659268722    0.24819246494092   -0.45008396783270
Cl       -0.55073736978716   -0.81113737353993   -1.33142314049681
