70
 energy: -112.055880107108 gnorm: 0.000580525419 xtb: 6.4.1 (afa7bdf)
Ir       -0.74357107576592   -0.70092653651590    1.14370618686518
C        -1.73642196619227    1.70368892054153    3.38781300696010
C        -0.74969525363408    0.67644752241997    2.94909464640444
C        -0.80479507095584   -0.71202577429669    3.36223115215282
C        -1.81359096915254   -1.26611271905217    4.31179607025503
C         0.42947269976068   -1.33090768172974    2.98302897722938
C         0.92470663042341   -2.65824872735746    3.43653284891243
C         1.17368289005794   -0.38391110978128    2.21499510786557
C         2.56233939144413   -0.54618198736625    1.70693978143472
C         0.46123407982681    0.87795099117886    2.23938996606472
C         1.05640959466558    2.16573893947289    1.77746243773964
H        -1.60832832246747    1.87384154758755    4.45750003162615
H        -2.75742692587690    1.36497339660557    3.22571016617267
H        -1.58664539212949    2.64564407240922    2.87028405578923
H        -2.81594767394775   -0.92928450606669    4.06088358367218
H        -1.79360963551575   -2.35175858187669    4.32138334192888
H        -1.58500966579870   -0.91636573684483    5.31924642219026
H         0.11245704297319   -3.34306169494830    3.66250122121691
H         1.58105534832981   -3.11385011440289    2.69933853666462
H         1.50223218449051   -2.51178401457328    4.35038752141689
H         2.68687403329492   -0.03137861886102    0.75718428886579
H         2.82131333732258   -1.59227045245525    1.57001564443660
H         3.26267773416417   -0.11005394987854    2.42026272083559
H         0.38385402264686    3.00028515600408    1.94757228565947
H         1.30556995065830    2.12005166521850    0.71866952608579
H         1.98037181617533    2.34540082686736    2.32631216552326
O        -1.43824327979479   -5.03125970245560    1.94866501493349
C        -0.35413644562615   -4.78085727613632    1.20038760973415
C         0.64313620663409   -5.75640324171433    1.17589109952343
C         1.80699962796780   -5.57310452336160    0.46108915739631
C         2.00087876728714   -4.38238323649736   -0.23316033556241
C         3.26500009259725   -4.12726239769403   -0.99841869848227
F         4.00343514641127   -3.14245759224371   -0.43893573493360
F         3.03715465921747   -3.73600987546648   -2.26619504343315
F         4.07114223680558   -5.19688908362270   -1.07126660224185
C         1.03269569030285   -3.39136707462953   -0.21579262984818
C        -0.15556778036050   -3.58461434579000    0.47914869514476
N        -1.12506352801118   -2.56698810229637    0.48394248747922
C        -2.34816258715590   -2.83282450040549    0.15945441881092
C        -3.32949787860645   -1.79044731226031    0.24498581306183
C        -4.67790923037396   -2.09497357316222    0.18953126504886
C        -5.57876630664782   -1.07391625666608    0.49634514373166
C        -5.10598304777292    0.20252765754318    0.60173612201559
C        -3.72716133984282    0.49677800473094    0.34534530903731
N        -3.37972495206966    1.74860503085397    0.04377820731252
C        -4.39269500418263    2.74256530518154   -0.30130299720977
C        -3.89983056023453    3.63131653299289   -1.44116868561726
C        -2.68332369007582    4.45553677424727   -1.01541870399353
C        -1.87019195639715    3.66887697926308    0.01671695764175
C        -2.01571475776675    2.16897388325612   -0.21193574058527
N        -2.83575923377717   -0.52905163980683    0.40822350488489
H        -2.06787358840185   -4.29460607447904    1.96347323796877
H         0.47333141604733   -6.66270494037738    1.73338376171443
H         2.56273521291499   -6.34173329803165    0.44413917925878
H         1.17688875123300   -2.46780201319392   -0.75566945265156
H        -2.64357796527556   -3.81249585014162   -0.20432606088068
H        -5.00561296970998   -3.10164118732628   -0.00205006872930
H        -6.62356828755605   -1.29092016974068    0.64862942083736
H        -5.76770096415669    0.99833152855312    0.89568892030656
H        -4.62984582220263    3.35620129057815    0.57361779865819
H        -5.29808748514870    2.23926812959469   -0.64003464408752
H        -3.64749586594926    2.99772855836428   -2.29252672079417
H        -4.71448087097236    4.28553554115479   -1.75128773402118
H        -2.07270893292900    4.67901596478245   -1.89039246946903
H        -2.99890027267559    5.40676235856186   -0.58555688545968
H        -2.21640867471560    3.91303590652889    1.02201131983000
H        -0.81731531531274    3.93818475255011   -0.05161303894260
H        -1.72937929375588    1.91631133085838   -1.23757494742588
H        -1.34968053130331    1.61678579622079    0.44976758915322
Cl        0.05442180650041   -0.25027689061562   -1.07304153306061
