78
 energy: -125.832490660909 gnorm: 0.000626571314 xtb: 6.4.1 (afa7bdf)
Ir       -0.43548620984310   -0.55745670758907    1.51620156806013
C        -1.48238385552406    1.24089204508381    4.27374146551251
C        -0.38841724263406    0.59496630532013    3.50098155665767
C         0.03307002995890   -0.76431522551084    3.68746234334043
C         1.24797795121819   -0.95804928148918    2.94182607453302
C         2.19557199215295   -2.09462871904908    3.10225923112423
C         1.51582023713318    0.24443999977377    2.21616476715280
C         0.49492386530384    1.21434233302411    2.56154453508925
C         0.58221058330762    2.64942737550889    2.25740227785175
C         0.63235762989364    3.56815972796245    3.30429405018204
C         0.77450543979133    4.91622052879400    3.04492507798328
C         0.87055210842052    5.38749103599954    1.73713872555475
C         1.03318895095416    6.82349796876471    1.46633908123639
C         1.91722052829330    7.26346463859883    0.48302569884689
C         2.07925865436435    8.61413219001242    0.23516202243108
C         1.35584028062502    9.54730479623610    0.96001911460679
C         0.47072388502023    9.12089500886783    1.93692275463144
C         0.31267171870306    7.77085851642019    2.19112199102333
C         0.81563363643129    4.46486793968000    0.69378046938111
C         0.67356421712963    3.11620148201971    0.94807042736666
C         2.76815466329891    0.53402590492839    1.46781760239566
C        -0.52324190098071   -1.69956274117222    4.70639628857293
H        -1.18087467657101    1.29744124598892    5.32027489508307
H        -2.39774880394967    0.65489074759791    4.23125657878045
H        -1.68251033328389    2.24379403658648    3.91127606108119
H         2.87296408845144   -1.85802420525555    3.92399191333266
H         2.79522910175583   -2.24595115107100    2.20939602410865
H         1.68360482271126   -3.02138430571106    3.34487110059608
H         0.59229614717938    3.22199060651164    4.32533018763230
H         0.83616928799134    5.61314170159572    3.86717571077828
H         2.49697379849048    6.54301386657377   -0.07554541345556
H         2.77382232852098    8.94168564271802   -0.52512062357003
H         1.48201635136957   10.60214901777392    0.76446955699228
H        -0.09845324970554    9.84505017104519    2.50186558040696
H        -0.39024911804312    7.44599381889327    2.94418364295418
H         0.86535772477452    4.81217273820415   -0.32724557087381
H         0.60093495800273    2.41952815107492    0.12665452199160
H         3.08729332536111   -0.32362198135367    0.88104185125146
H         2.64081858841248    1.38796510727527    0.80936212555338
H         3.55699898231847    0.76655335155638    2.18468119388122
H        -1.59958679316696   -1.58407940647094    4.79925663296838
H        -0.29303512407721   -2.73191560581753    4.45864374954072
H        -0.07579998835231   -1.47720188628870    5.67588016963957
C        -6.58582865479163    1.66284644988747   -0.36056184621823
O        -5.25435332666116    1.63907895804189    0.13734544385192
C        -4.61510023046239    0.48445678140006    0.25022266352251
C        -5.11517728930666   -0.78093042841702   -0.07190806623796
C        -4.29210095778508   -1.87702272066127    0.07857888666017
C        -2.99500623949302   -1.71381189329466    0.56393864248348
C        -2.03846314045387   -2.77189158766144    0.61603109409324
N        -0.82205922218795   -2.47404959242805    0.93915477571827
C         0.16406018308188   -3.47184032063004    0.91499532328410
C        -0.00838629640779   -4.65840214042366    1.62995673565399
C         0.97997541757361   -5.62595394014742    1.59475900081248
C         2.11625754281947   -5.41134257449391    0.83626322806906
S         3.38844728009900   -6.68533656797087    0.78524941792146
C         2.82896283248539   -7.82003179526438   -0.50871150306049
O         4.63074942718739   -6.07566044892968    0.37449673062488
O         3.38150588110925   -7.37929643194512    2.05198555756563
C         2.29250218140492   -4.24321461823782    0.11676097930983
C         1.32000386351529   -3.26100050856874    0.16277155013543
N        -2.51705102034487   -0.49287362559605    0.93435187253109
C        -3.29589971396413    0.55788099883190    0.75597214555982
Br       -2.66054333580711    2.28010737926927    1.16212136168989
H        -7.25533366620677    1.09435291979572    0.28785936341223
H        -6.62746412345333    1.27552740266263   -1.38073970367958
H        -6.87390112880816    2.71154515648996   -0.35515483311359
H        -6.11723079221614   -0.89917066110593   -0.45023308102529
H        -4.63801779065146   -2.86183290015214   -0.19048684893761
H        -2.31506351176698   -3.77566215759932    0.31318758445027
H        -0.89725954112459   -4.80420941277161    2.22423805985136
H         0.89215489238833   -6.54097414709782    2.15841949458758
H         3.56336354017057   -8.61230620275930   -0.58722093801444
H         1.86820438470625   -8.21950450847446   -0.21323068779040
H         2.76670140388497   -7.26534033533546   -1.43529366889084
H         3.19784585491941   -4.11427980805852   -0.45438473386920
H         1.42445758316433   -2.34057335943860   -0.39115995117794
Cl       -0.10778086777079   -0.04569414254103   -0.79028806193306
