79
 energy: -118.159885051421 gnorm: 0.000502204516 xtb: 6.4.1 (afa7bdf)
Ir       -0.66092116053309   -0.90621741917292    1.24948560780900
C        -2.48148127643331    0.60108887991987    3.76465844473796
C        -1.18203262850347    0.05905086072972    3.28025270338741
C        -0.75007430548935   -1.29888826049205    3.45110115324745
C        -1.50265761486369   -2.34221357537677    4.20640476824284
C         0.63518088810425   -1.37613455726182    3.05789171823653
C         1.57247391370071   -2.48428657521970    3.39896810147039
C         1.00962658500875   -0.11601815697743    2.51729586288763
C         2.38893439762425    0.30340872767272    2.14227540588925
C        -0.12508046766006    0.78418670687563    2.65868758878529
C        -0.02956130157082    2.24751249372071    2.52421619501099
C        -0.27579601982145    3.04570676751437    3.64089186731705
C        -0.13175830082152    4.41570915369870    3.53314290363673
F        -0.36804805526866    5.17877250030065    4.62093671110619
C         0.24218402102311    5.03630676777997    2.35450872525715
C         0.47378898482870    4.21675636775943    1.26309403282767
F         0.83204939110728    4.78784428293456    0.09471152795892
C         0.34832284016437    2.84216653260841    1.32215977610784
H        -2.63553946047385    1.62003899265144    3.42309490693632
H        -2.48343342590747    0.59045657128696    4.85503810577388
H        -3.31522332833065   -0.01249348459001    3.43021517598464
H        -1.22704196731011   -3.34243481750929    3.88417494914708
H        -1.27298201626853   -2.25268062491538    5.26879008088282
H        -2.57404061227424   -2.21590075726728    4.08025765442995
H         2.09449573296250   -2.21495243221864    4.31853123496687
H         1.04242864196237   -3.41470186228029    3.57977822891405
H         2.32256192575412   -2.63319128361007    2.62695514833349
H         3.02140978832478   -0.55921523197421    1.95364432713006
H         2.38239125906761    0.93475527564633    1.25783853836727
H         2.82202344134572    0.87675317853566    2.96266322608262
H        -0.54932593705693    2.61377342289824    4.58964471541863
H         0.35070775996417    6.10615089588463    2.28981615544266
H         0.51823115512738    2.24870790168552    0.43651778293136
C         5.41154127881019   -2.77139480525089   -2.82733388824064
C         4.04989460077494   -3.22452015229032   -2.31091797588787
C         4.07806957330587   -3.47461720730027   -0.80394849276797
C         2.77889306181991   -4.06859476325108   -0.25752208331954
C         1.60641455439780   -3.09149194906154   -0.32457919959411
C         0.37185245406587   -3.67502587046371    0.37328212427536
N        -0.72197997297168   -2.73713331576729    0.37611729705029
C        -1.81073972236271   -3.03549352135196   -0.24362713464529
C        -2.84778128754045   -2.04948126904497   -0.28969822956061
C        -4.08850574342065   -2.27209741355101   -0.92132824665788
C        -5.00674048454879   -1.26488115353223   -0.95994816606044
C        -4.66692091550322    0.00204637800447   -0.42994548151490
C        -5.53531973754153    1.09309061292682   -0.50189146934123
C        -5.16364561868857    2.34579167239209   -0.03868074758203
O        -6.07014173457135    3.32262476327056   -0.15850152480942
C        -5.77034973036582    4.64713982664582    0.26881549689479
C        -6.99534401146276    5.50354463487825   -0.01137910113193
C        -3.86713713647380    2.50974579671028    0.50264284165250
C        -3.01332932694421    1.44804539605197    0.61097830024382
C        -3.37969220735646    0.16154218452340    0.17487877178046
N        -2.52890627432128   -0.88380910648420    0.29102969632514
H         5.71895717126679   -1.84828920408970   -2.33995030577259
H         5.37538134244512   -2.59489619491696   -3.90019037842597
H         6.16830574519522   -3.52885169770980   -2.63184363226560
H         3.30970657188130   -2.45864689446861   -2.54734154510783
H         3.75989298415963   -4.14367891285745   -2.82539463719952
H         4.29561972835434   -2.53516397610799   -0.29124532635979
H         4.89432659690472   -4.16651527149961   -0.58311124343250
H         2.94365003601919   -4.36393440719109    0.78123067931815
H         2.53619218026144   -4.97168204304464   -0.82079722382667
H         1.87987650456869   -2.14651989722470    0.14697491130360
H         1.35533687922855   -2.87590194180201   -1.36237556047091
H         0.07131315584886   -4.59733596565998   -0.13317194050921
H         0.62596850030644   -3.91309237095215    1.40782391090875
H        -1.94155187994144   -3.98750301545183   -0.74758738207705
H        -4.28742000528653   -3.23854211854577   -1.35411023200627
H        -5.97749351440612   -1.40502759012997   -1.40864588985582
H        -6.51035195730240    0.97267027138552   -0.94584716145991
H        -5.54269530209108    4.64885142783609    1.34206516354204
H        -4.90407923210894    5.03069164713013   -0.28461547933036
H        -7.21682790241957    5.50101304097455   -1.07503638461973
H        -7.85549111757772    5.11103055611353    0.52389490131463
H        -6.81036086847700    6.52373470561431    0.31093757982533
H        -3.53497860913300    3.48278563118251    0.82558880620401
H        -2.01628705747504    1.60201047450108    0.98828351646147
Cl        0.13348758319083    0.00662076764020   -0.79956125791121
