70
 energy: -119.380042108812 gnorm: 0.000390839528 xtb: 6.4.1 (afa7bdf)
Ir       -0.68928894732805   -0.68576483238328    2.01118066760426
C        -3.09913308697929    0.98347500469255    3.84457348845404
C        -1.73633029379648    0.40139594133781    3.72397814852443
C        -1.36879309442990   -0.92960649002537    4.14611568155101
C        -2.29824896643993   -1.91198666215338    4.76904358925078
C         0.06412657597542   -1.01574089476409    4.14153476556423
C         0.86806906114560   -2.09388292243012    4.77852837267293
C         0.57882995241319    0.20436371562150    3.60341772181684
C         2.01307262435054    0.60066099408266    3.54726933153692
C        -0.55023277539588    1.09221367277449    3.36460753150551
C        -0.44718515829537    2.52678725475067    3.04978946995675
C         0.28932091829588    3.35127463203658    3.89780781421338
C         0.36778443065629    4.70290399785631    3.62105754530822
F         1.07800161510997    5.49172757871811    4.45143371855852
C        -0.25242225914101    5.27777637828162    2.52593789764114
C        -0.97192959903122    4.43222743623360    1.70093687450547
F        -1.58704843205258    4.95022724641937    0.61856039771391
C        -1.08662879347174    3.07621247576498    1.94248568140802
H        -3.17557782052836    1.93255777721359    3.32016239907031
H        -3.29962464098873    1.16753723927133    4.90122966339347
H        -3.86463893563577    0.29893261008536    3.48552860145516
H        -1.91850310430104   -2.92527189068019    4.68005208641794
H        -2.40119122693476   -1.68029523760067    5.82975022493943
H        -3.28479955759603   -1.86114333387117    4.31769557504964
H         0.93786348127571   -1.87459223699881    5.84518221731664
H         0.39596214492105   -3.06684951501557    4.67423402880384
H         1.87954368938113   -2.12426438236953    4.38374012414357
H         2.63746462605918   -0.22819534122509    3.22578160756907
H         2.15609153081654    1.43078595936331    2.86112210396053
H         2.34507522589978    0.90580201954330    4.53996763842119
H         0.78309540296595    2.96002438354785    4.77174886399663
H        -0.17454925833465    6.33262642842626    2.32262532691050
H        -1.63177160475290    2.46197244694286    1.24442181676651
F        -6.36813999981345    0.34199749248994   -0.96762043363220
C        -5.17342329754006    0.94517189752813   -0.85342567554656
F        -5.27300940358719    1.80292270375162    0.17011590176079
F        -5.01260128729831    1.68089649706427   -1.96469692009373
C        -4.05836487303053   -0.05083905298542   -0.67210599140986
C        -3.86068126787957   -1.04676900342558   -1.63379364522284
C        -2.83688079814089   -1.94862464222955   -1.43442753902214
C        -2.04079620371361   -1.83453717845929   -0.29090113151789
C        -0.95290864106487   -2.70352700921252    0.03729476481726
N        -0.24712751861302   -2.41990548278892    1.08581441329647
C         0.82932508989611   -3.32964119373983    1.42240006746991
C         2.03542628898838   -3.20340638350085    0.47415712084883
C         2.92328262267144   -2.00473659021520    0.81995843879547
C         4.02612609013671   -1.86882460250220   -0.19316894930322
C         5.24410266840773   -2.51133755690483   -0.01112633173347
C         6.24564428532870   -2.40527332734266   -0.96065653516916
C         6.03853658431716   -1.65638294814325   -2.10697916831669
C         4.82601261017512   -1.01386600702177   -2.29814193450716
C         3.82630464797201   -1.12239534194164   -1.34781861662848
N        -2.24739448933527   -0.85999849124010    0.63107879294548
C        -3.23093665586703    0.01001773537268    0.43713920097956
H        -4.49786133775331   -1.09960947154062   -2.50307676815580
H        -2.63883040161600   -2.72916512923948   -2.15094362576745
H        -0.74729898656981   -3.58025219977092   -0.56697343548406
H         1.15685389527324   -3.13303336370004    2.44142832521415
H         0.44540863324475   -4.35178698805600    1.36369656261996
H         2.62551340256812   -4.11779978335946    0.54483298384245
H         1.68671133579887   -3.10491135068336   -0.55406989642241
H         3.35710482027820   -2.15076459483014    1.81034385066785
H         2.31673744268956   -1.09882035595996    0.81950917705748
H         5.41600031735278   -3.09517994135967    0.88186374726000
H         7.19082893048779   -2.90601387179577   -0.80726283249715
H         6.82050925917639   -1.57068397599683   -2.84777877800048
H         4.66239864167224   -0.42500941970462   -3.18951314297001
H         2.88425315686326   -0.61442651509022   -1.49667938001310
H        -3.37734792766363    0.77348650941766    1.18731821211925
Cl        0.32889264238783    0.48048348366223    0.20907219579108
