71
 energy: -126.727725942259 gnorm: 0.000811577622 xtb: 6.4.1 (afa7bdf)
Ir        0.03522072094122   -0.62645083074617    1.64538914758387
C        -1.62507257150549    0.53945254937109    4.34570148572370
C        -0.32575543416761    0.31015820618210    3.65615786199790
C         0.51984686446044   -0.82247183073189    3.87132449254832
C         0.26756977346692   -1.86974249105873    4.89988032554239
C         1.72818980041058   -0.62565872879519    3.11208308787964
C         2.96646511305068   -1.45477461070134    3.18962663420405
C         1.66665202286785    0.67826564249200    2.51128598274497
C         2.80064191124296    1.37303513238675    1.85187330182869
C         0.37472282950674    1.23360119750334    2.79603485631684
C        -0.04469796107516    2.60176372134813    2.46052979685749
C        -0.49289247491866    3.46258589292304    3.46048728488961
C        -0.86185670189104    4.75059202405244    3.12018827130332
F        -1.29019210375949    5.57657733426116    4.09491891262109
C        -0.81080416741784    5.22458106030115    1.82135173287243
C        -0.36138516309610    4.34603461728990    0.85127686272351
F        -0.30290569796599    4.76685452264219   -0.42740810699675
C         0.02445736960240    3.05176487786391    1.14197631490763
H        -2.19431581096072    1.33373314141927    3.87091146324882
H        -1.43446928577639    0.82339013044453    5.38158389148380
H        -2.22290485262869   -0.36866845801582    4.36208530075721
H         1.04884246682542   -2.62251756897947    4.89476193200583
H         0.26170602275282   -1.39123671527156    5.88005056193902
H        -0.70206604777537   -2.34397717817587    4.76571611818218
H         3.55269747036637   -1.14269472986223    4.05460768946706
H         2.73087698935679   -2.50992522119280    3.29303807988443
H         3.57031114832891   -1.32012720687839    2.29682930258574
H         3.02749465075541    0.92289170889065    0.88572597941507
H         2.56889127403750    2.42293479628986    1.69325289972359
H         3.68878824486655    1.28750113846801    2.47600658519193
H        -0.53180751127736    3.15486950594542    4.49207480294878
H        -1.10667769037137    6.23077397425595    1.57654187625002
H         0.35531913873235    2.39989458139823    0.34829772541237
C         5.42214772840071   -8.70283350796118    0.97624675723991
O         5.00279988062403   -8.05182468119443   -0.20826210897686
C         4.08410809248921   -7.07008437912311   -0.12765763995913
C         3.73538369689854   -6.47489928404690   -1.36823689847737
C         2.81945004175247   -5.47148086875613   -1.42715476210192
C         2.18715330007530   -4.99790910266109   -0.25115075256313
C         1.22724520937370   -3.97965227153152   -0.28618450985487
C         0.64846368685258   -3.51330538057229    0.88185020994320
N        -0.28784938307318   -2.48041923858475    0.84246800157376
C        -1.26467135887658   -2.54658283506606   -0.01818919829504
C        -2.12603107447937   -1.41540548204335   -0.12942481949201
C        -3.20417026388861   -1.32043682252365   -1.01811334168119
C        -3.94042256914394   -0.15755796128234   -1.06163983743232
C        -3.57493784778915    0.88809363156388   -0.20499982431524
C        -4.35823528307904    2.17218987032847   -0.21580928298839
F        -4.56703709389638    2.62678508702951   -1.45956166915635
F        -5.57498176108990    2.02209588927803    0.34072956951506
F        -3.75237369443572    3.15592322427794    0.46368346951929
C        -2.50404438228373    0.72960274034196    0.65700831429307
N        -1.79345926229583   -0.39124876190596    0.70033195650312
C         1.00311340129878   -4.09308643766693    2.12078229707243
C         1.90749275645626   -5.11234210103598    2.16853672278702
C         2.53754091933370   -5.58966856179663    0.99490138458488
C         3.48725616968151   -6.62341002746185    1.03378764283253
H         6.15024224674580   -9.44625234316853    0.65820099736646
H         5.89639587211079   -7.99963521198025    1.66606928029986
H         4.58433215358027   -9.20140754212203    1.47066904496576
H         4.22408395916332   -6.84767730637265   -2.25430879343984
H         2.56081367625378   -5.02434515051032   -2.37464166516434
H         0.98399678746051   -3.51367054656513   -1.22921434396739
H        -1.41703774884928   -3.42793471539398   -0.62903430255317
H        -3.43688084430321   -2.14989513573486   -1.66594720876899
H        -4.77170114296637   -0.04078630222728   -1.73943044769344
H        -2.20998103364642    1.53281991051704    1.31723164611988
H         0.49711775060216   -3.75451870834912    3.00864052290426
H         2.15310707860431   -5.57744399673959    3.11109064511439
H         3.73490633355871   -7.05428090393425    1.99065212293463
Cl        0.90979866594687   -0.17553197032523   -0.51660763277846
