64
 energy: -107.231899036682 gnorm: 0.000541702036 xtb: 6.4.1 (afa7bdf)
Ir       -0.93632325865346   -1.06162637496751    1.48307768682026
C        -2.46493925581140    0.70264061214946    4.02041451535073
C        -1.24077525134505    0.06104903917692    3.46792909590347
C        -0.85972643421514   -1.30521970360299    3.70075383611391
C        -1.59500157241937   -2.25632123801282    4.58213966750614
C         0.48003611522185   -1.48253425723340    3.20364066413866
C         1.37036326716940   -2.63661655713343    3.50281459476525
C         0.87037615472477   -0.28343877396956    2.54699562082240
C         2.23876454605897    0.02213893791238    2.04676766797819
C        -0.20463934988648    0.68541790671590    2.71456290462535
C        -0.06312555777958    2.12840776756924    2.45468996328627
C        -0.17103827628171    3.02003227620925    3.52079954328993
C         0.02025344742907    4.36888347399285    3.28939023266583
F        -0.07728188413782    5.22329044880435    4.32837714070981
C         0.30821122180316    4.87754811698502    2.03540108297299
C         0.40057677981754    3.96731299465784    0.99686819539549
F         0.67130594907790    4.42787110228285   -0.24097317283273
C         0.22380845201430    2.60886475529774    1.17872347660336
H        -2.61349745655217    1.69548467275230    3.60684994507180
H        -2.35857763602312    0.78482786205690    5.10263653419270
H        -3.34962811426408    0.10064602382439    3.82496853837199
H        -1.34273483792231   -3.28624675791613    4.34607556883207
H        -1.31681351105515   -2.06958489264182    5.62003049729529
H        -2.66928215924378   -2.12162907155568    4.49225108251948
H         1.87018078930687   -2.44635047425780    4.45350537510718
H         0.81227607179640   -3.56397978335586    3.59471002817010
H         2.13389642539086   -2.75527185354130    2.73980217727306
H         2.66352915764686   -0.82904264034095    1.52118867503077
H         2.23108652822099    0.87922737273373    1.38039316160899
H         2.88264620477415    0.24963408356336    2.89711767453501
H        -0.37345153977484    2.67613111477545    4.52168937290348
H         0.45434998158135    5.93262791052500    1.87494211505463
H         0.28508152385859    1.94108978501588    0.33269303706766
Br        3.58797617774288   -6.82894037749992    0.72442363988859
C         2.10861473395785   -5.60567971451760    0.74445659286640
C         0.89117055583517   -6.01242318607013    1.27333161920805
C        -0.17498099577705   -5.13411877011116    1.27898496150941
C        -0.02075707573400   -3.84191896762938    0.77318458798430
N        -1.09132212059287   -2.93816337751264    0.76720667419480
C        -2.25456950163300   -3.31199290362717    0.33572212461873
C        -3.28154363455288   -2.31704901990254    0.29669755562752
C        -4.57865363701196   -2.57436954962882   -0.18752549643280
C        -5.47860838694732   -1.54839182295545   -0.25237338414970
C        -5.07081718629637   -0.24600052553769    0.10623406832976
C        -5.93007462719026    0.86560997399816    0.00110596337063
C        -5.48715965919888    2.12335802599086    0.31002015574423
C        -4.15878446101389    2.31900266146380    0.72086147731493
C        -3.30323383692347    1.25882359510308    0.85393895146469
C        -3.73477444277257   -0.05102568955670    0.57160614933015
N        -2.89077854149718   -1.10240317090581    0.71470279308598
C         1.21308855693059   -3.44041192782305    0.25966099976844
C         2.27303035995041   -4.32511580977972    0.23369947597302
H         0.78008611729521   -7.00707329446670    1.67396292685495
H        -1.11981574737252   -5.44002570067862    1.70106794557547
H        -2.42701466717920   -4.30988733885074   -0.05038769421818
H        -4.83536188205994   -3.57543288740922   -0.49219129480518
H        -6.48900846519742   -1.71120948991698   -0.59441433983711
H        -6.94042053972354    0.70479364424377   -0.34199153819233
H        -6.14793009790148    2.97144291168860    0.22391146764638
H        -3.81012618327933    3.31858048073661    0.92811894486136
H        -2.27339594597024    1.41657610731532    1.13029024457921
H         1.31493832814227   -2.44655750234149   -0.14917583245036
H         3.22198913967338   -4.02548647798151   -0.18080837141476
Cl       -0.30044585425186   -0.34923477434301   -0.69979286745736
