85
 energy: -110.037671691350 gnorm: 0.000395308089 xtb: 6.4.1 (afa7bdf)
Ir       -0.62096972273050   -0.24172124479010    1.76780456266115
C        -2.22544695613535    2.26296505021913    3.47774817910529
C        -1.18477705802697    1.19431100610484    3.41098676747540
C        -1.44976734444823   -0.17037189862344    3.83954951713829
C        -2.76219485329471   -0.65723907880244    4.35265052825591
C        -0.21612719713688   -0.85786872134453    3.92169617330783
C        -0.00919765254540   -2.21650675805884    4.49577451124073
C         0.81545700626870    0.03514998688684    3.45994181912677
C         2.28221557958551   -0.19260658119046    3.61614219189560
C         0.21370453902390    1.33212854909615    3.21117845072484
C         1.03586130722138    2.58200073754143    3.04963429750414
C         0.70386021156418    3.45091874486653    1.83327060621280
C         1.68431331784830    4.61809308257432    1.75440423058963
C         1.61491347010465    5.46230849853614    3.02458862753443
C         1.90957663651106    4.60425061856419    4.25213800606543
C         0.94262861615666    3.42607224039518    4.33265870900679
H        -3.15471741968076    1.93543207084320    3.01676210331480
H        -1.89669844607607    3.17553488948057    2.99390023191014
H        -2.43430230610204    2.47976858137707    4.52635015037700
H        -2.85122722168585   -1.73576627561237    4.24973286681815
H        -2.84518181328730   -0.41076318497556    5.41203819326001
H        -3.59237253699363   -0.18682009077410    3.83248537992112
H        -0.89441318371977   -2.83549561113552    4.37619375885663
H         0.83643869355174   -2.71921638164204    4.03573700067794
H         0.19476927465421   -2.12001767588510    5.56297626343955
H         2.50780995350798   -1.24632950464910    3.74095760869770
H         2.83933055791386    0.18432038458835    2.76175636789529
H         2.62875741899714    0.33693212990315    4.50479022641658
H         2.07839509803628    2.27153127022493    2.93489085826328
H        -0.30584528941144    3.85188982105082    1.91065125864589
H         0.77043788022569    2.84649809579876    0.92809063952068
H         1.45236937724798    5.23592174183337    0.88501217171405
H         2.69996695056448    4.23704506577234    1.62645881735455
H         0.61806935122976    5.89992451941990    3.11721711976888
H         2.33225885636398    6.28346032690866    2.96635006498787
H         1.82559570626621    5.20859466942527    5.15789849409311
H         2.93548935399044    4.23319775539188    4.19497731783607
H        -0.07292915249626    3.80277307047858    4.45595120608374
H         1.18144229842384    2.80977954455954    5.20194087269528
C        -1.72494665698371   -2.65116795495634    0.89046243155563
N        -0.54936962597781   -2.14532974760342    0.96366700092086
C         0.56098288240760   -2.98269522785863    0.54276050639217
C         1.90781579874613   -2.50168303293646    1.08692790266691
C         3.06390477236157   -2.83839048813720    0.13822700924480
C         2.81316864719136   -4.17277350951737   -0.55439613156016
C         1.59371000270604   -4.06522422922037   -1.47950534093238
C         0.60701815606268   -2.99878837718430   -0.99456447110305
C        -2.89116236721410   -1.81333087358603    1.02564868167999
C        -4.14537935275116   -2.35426943360573    1.22709897784524
C        -5.20948259550164   -1.46888317771761    1.41211605707509
C        -5.00101823403889   -0.13511731669679    1.20019073838633
C        -3.72221226902815    0.34439636108174    0.78200811051897
N        -3.59544703309723    1.58782558620521    0.30563735167704
C        -2.30581409717887    2.13788612542554   -0.06732319892735
C        -2.38839746334256    3.65092651230253   -0.21172443800801
C        -3.31380276323543    4.03820422198928   -1.36781799913748
C        -4.43969464391513    3.00803285080825   -1.49379960051701
C        -4.74721124612736    2.35782656485596   -0.14548440866220
N        -2.65293945117202   -0.48278295408228    0.88079510966338
H        -1.87682447682555   -3.70146204206798    0.65469278730217
H         0.36172694652058   -4.00714396919379    0.88320648775740
H         2.08852349280087   -2.96661570069475    2.05635263402084
H         1.86288306466802   -1.42156974439007    1.21533087133486
H         3.16966236084739   -2.05839320208396   -0.61594541029848
H         3.99546474409822   -2.87717860174875    0.70397626503842
H         3.69083805482423   -4.46996491673615   -1.12962878387646
H         2.64727011908941   -4.94120303535014    0.20370413961974
H         1.91345292720126   -3.80301225555234   -2.48878241419741
H         1.09489076396246   -5.03453162635105   -1.53719872833561
H         0.90506942942716   -2.00859362385133   -1.33671465019052
H        -0.38676630648829   -3.20306785994611   -1.39590184864649
H        -4.27724665703522   -3.41965501060795    1.30248641261419
H        -6.17831980612198   -1.83249434017773    1.71551328875733
H        -5.79958235417543    0.56582999951699    1.37189287499343
H        -1.95570545152689    1.68839349302664   -1.00212723067431
H        -1.57971565306267    1.88025331173203    0.70645257304116
H        -1.38655094619381    4.04095120454887   -0.38427017966535
H        -2.75888418526812    4.08026984089943    0.72028272956719
H        -2.75273826337476    4.07947208809466   -2.30169433226865
H        -3.72429868824382    5.03256798194453   -1.18885119879800
H        -4.15525605013212    2.22371902503902   -2.19684239937860
H        -5.34712747684467    3.47676460680632   -1.87437910649839
H        -5.00149076276836    3.12607624070117    0.59192759287643
H        -5.60354420744713    1.69761415105531   -0.27702039530271
Cl        0.47646362068556    0.43169664150942   -0.22138841792347
