72
 energy: -111.804847712315 gnorm: 0.000670006743 xtb: 6.4.1 (afa7bdf)
Ir       -0.29410214382049   -1.08420714735820    1.45574096518657
C        -2.09433352588291    0.54827973805045    3.90674585559724
C        -0.80645969493468   -0.04172635065514    3.45113613342362
C        -0.41140065499880   -1.40524132224868    3.66843220017800
C        -1.19589102954591   -2.40321974055643    4.45119686259712
C         0.97219745556122   -1.53175624573702    3.28435131598418
C         1.88249982116589   -2.65175146671530    3.65543953044743
C         1.38480826578393   -0.29650410768921    2.70992993090246
C         2.77993873695686    0.07356933679207    2.34620186287011
C         0.27329698315869    0.63621976582903    2.81599352692629
C         0.41172510553665    2.09192448420474    2.64115457945529
C         0.18005497963868    2.92496578707429    3.73467978320411
C         0.37514037653853    4.28585605137938    3.59581616410666
F         0.15373814803856    5.08259454298554    4.66187009670972
C         0.78918344296768    4.86291839833598    2.40859829876315
C         1.00260794805690    4.00964950289612    1.33976373073436
F         1.39988816509715    4.53719851161114    0.16406823298442
C         0.82407053968150    2.64246811419753    1.42957151192156
H        -2.22841184591816    1.55432262755175    3.52095504535470
H        -2.09710120194220    0.58625680069011    4.99657492257438
H        -2.93988373720554   -0.06355560479732    3.60019680473222
H        -0.93889826501798   -3.42042367266130    4.16966857052784
H        -0.97599829126766   -2.27880992350993    5.51217794184417
H        -2.26270107125232   -2.25738575404896    4.30859871144464
H         2.41854999003454   -2.36551859702182    4.56148743077503
H         1.33146047044180   -3.56259546043053    3.86945234931251
H         2.62297698143042   -2.84018203362090    2.88272102622594
H         3.36978359803215   -0.80646175268550    2.10653513304511
H         2.79948491128263    0.75325362210900    1.49908692029621
H         3.24377643987103    0.57889033961465    3.19444913204935
H        -0.12084574014875    2.52759391853728    4.69004316804473
H         0.93957583807501    5.92594915931531    2.32062392052762
H         0.98258610843930    2.02320739184086    0.55965420456746
C         6.26426514953741   -2.24380715696336   -0.88276107241653
C         4.97190068193789   -2.60219403942471   -0.15704085234012
C         4.31654297038866   -3.84415608250076   -0.76018343815861
C         3.08680413202021   -4.32437132689648    0.01303187465476
C         1.91645600300910   -3.34765545685732   -0.08427576656184
C         0.68360451680175   -3.88863993927835    0.65149529940091
N        -0.39161737018142   -2.92974305352929    0.62867906724615
C        -1.48027151491992   -3.22158109382473    0.00521754389730
C        -2.49747430476624   -2.21498303087582   -0.07695737148637
C        -3.73596311193105   -2.43063994564367   -0.71181856873421
C        -4.63783153533483   -1.40740760815927   -0.77530756911913
C        -4.27538468408095   -0.13751950274514   -0.27317167779882
C        -5.13422986046586    0.97230165989019   -0.37425824082403
C        -4.72281789344415    2.20510759852732    0.06342502032345
Cl       -5.77035215820743    3.57572667383562   -0.06602839360597
C        -3.43346812282080    2.37920721939197    0.59742681236650
C        -2.59403876859575    1.30869952243711    0.73229505573088
C        -2.99058709563466    0.01851041677523    0.32837935974974
N        -2.16029568002393   -1.04209994991712    0.47850066511486
H         6.97884206725940   -3.06238217627579   -0.82312644108000
H         6.06861650264420   -2.03904846294683   -1.93334451512426
H         6.72017644269886   -1.35989297048629   -0.44213361154805
H         4.28868296414121   -1.75420135728564   -0.22237769720443
H         5.19586362876143   -2.78672658261353    0.89662000896244
H         4.03704659917660   -3.63494035767682   -1.79481803603662
H         5.05226683360014   -4.65175097042198   -0.77705366428196
H         3.36068161983682   -4.47719103235207    1.05903158976912
H         2.77991705711519   -5.29096582050395   -0.39168523001796
H         2.19009841088149   -2.38155786999838    0.33899709296596
H         1.66249994176083   -3.18442527829687   -1.13209504235130
H         0.94915904856834   -4.08968981910978    1.69057567275741
H         0.36072150684798   -4.82415087018153    0.18520354307752
H        -1.62596796491877   -4.18353295301722   -0.47493906205470
H        -3.95041942387679   -3.40228924711703   -1.12532308490091
H        -5.61021161563205   -1.54216878923342   -1.22241365878387
H        -6.10922754136372    0.84298709121503   -0.81587585476945
H        -3.11413103001788    3.36581087288380    0.89117155883099
H        -1.59260119848912    1.45190341241200    1.10276369939824
Cl        0.53162869388647   -0.23535363653933   -0.60801287836395
