67
 energy: -95.442480787799 gnorm: 0.000675329931 xtb: 6.4.1 (afa7bdf)
Ir       -0.35850742417667   -0.67214833355159    1.53964671022164
C        -1.87173003919623    1.26936493895605    3.93738201563756
C        -0.65395684714235    0.59580714193931    3.40246808113083
C        -0.30414251693001   -0.76009000446608    3.76158822854865
C        -1.06551858080217   -1.61184394297810    4.71949901614538
C         1.03393159826662   -1.01203185421932    3.30526277967722
C         1.86431443881810   -2.18355935097172    3.69970371094339
C         1.45357474629196    0.12237338134532    2.55328037982674
C         2.81945127458246    0.35225596379401    2.00003923798404
C         0.40442179825292    1.13567528481322    2.62443311960463
C         0.61682963151790    2.55663113816988    2.17622388351522
C        -0.47844701677757    3.11793165940471    1.26244951141473
C        -0.09625279792384    4.52198134495068    0.80165669823349
C         0.10592383353053    5.44311855575419    2.00257574767994
C         1.17552500555158    4.88097684537214    2.93549737336780
C         0.80520227574440    3.47373482609176    3.39585848423921
H        -2.75309098025424    0.64193023621817    3.82085124184970
H        -2.05306154146878    2.22773309608900    3.46508425874207
H        -1.72922000280838    1.43669565204403    5.00579959330945
H        -0.82427444480099   -2.66268755213801    4.58654199515623
H        -0.79744473284711   -1.32983774774034    5.73843318523651
H        -2.13725185164662   -1.47712351633507    4.60388743774866
H         1.26780400826842   -3.08909414224112    3.77142340078935
H         2.67281330747913   -2.35673452001438    2.99647472118734
H         2.29849926561815   -1.98412619818939    4.67993321707633
H         3.39758499245066   -0.56667811578188    1.99426573970420
H         2.76713227867949    0.73770523379966    0.98367031812785
H         3.34114628811884    1.08538260218007    2.61524745787456
H         1.54558684127402    2.57993679734293    1.59816821546898
H        -1.43189617587635    3.17768770814290    1.78814769799737
H        -0.59624436185778    2.46231129379151    0.39801072422509
H        -0.87886687271557    4.92303477442748    0.15429934480392
H         0.82539187300128    4.47789863457776    0.21699339536668
H        -0.83613833670814    5.54437315434536    2.54705499663689
H         0.39824411408133    6.43800145167689    1.66081829794364
H         1.29088933760472    5.53210061871885    3.80452370207687
H         2.13334737918208    4.85462234235082    2.41073276212566
H        -0.11621122542704    3.51546607942667    3.97696265715095
H         1.59150543664110    3.07575389879605    4.04003127203760
C         3.79608224304703   -6.27868484469113    1.04183435231125
C         2.67789947798587   -5.29022392604281    0.99192548838856
C         2.89532371622525   -3.97983004403487    0.57216456717393
C         1.86228894435726   -3.06619877615661    0.51969702119783
C         0.56814565500000   -3.46059967100350    0.86093736588424
N        -0.47831060153592   -2.53727660154548    0.77852449533398
C        -1.58645571551026   -2.86747228866795    0.18877326099687
C        -2.60915164491636   -1.87077931650953    0.13078877028813
C        -3.81527349459851   -2.00433159140128   -0.56404752340235
C        -4.69896261472620   -0.94688633737721   -0.59692609643876
C        -4.34227233627544    0.22619863601420    0.06817995466653
Br       -5.50106497292969    1.73529724094743    0.07045626688541
C        -3.13374525280715    0.29838407360090    0.74576875944921
N        -2.29022993289999   -0.72454592760592    0.78529599786645
C         0.33506273808164   -4.77429664918719    1.27345210082047
C         1.38406046447126   -5.66703072909469    1.34757746805319
H         3.79623506827430   -6.87734153150915    0.13035294916156
H         3.67804189621520   -6.95750153734860    1.88308455592153
H         4.75878566950153   -5.78019880996019    1.11583978092946
H         3.88951308853680   -3.67442754805425    0.28312561792467
H         2.02662792187704   -2.05655324231154    0.17520791211198
H        -1.71535082346104   -3.83398983754429   -0.28325492205289
H        -4.03634434535966   -2.92608587916327   -1.07758833300251
H        -5.63609006408313   -1.01579577692373   -1.12625548818148
H        -2.84562814088443    1.20349153709957    1.25817556743626
H        -0.65897946918890   -5.07393720690251    1.56916196083125
H         1.19865293237371   -6.67641174640521    1.68288637857625
Cl        0.22892861761282    0.05222995589842   -0.66296883993108
