62
 energy: -94.985875243127 gnorm: 0.000630903516 xtb: 6.4.1 (afa7bdf)
Ir        0.02399128070358   -0.80644031586439    1.49345465149941
C        -2.08425209560114    1.04836559766244    3.60864007240087
C        -0.80560083404839    0.34142369766391    3.33104337014199
C        -0.59029616472341   -1.05697386318958    3.62425443657811
C        -1.60694799919956   -1.95606970305423    4.24077445087611
C         0.82152045875532   -1.31613587049231    3.54554435627104
C         1.50206839592466   -2.50709876925868    4.12756300527388
C         1.45024923034375   -0.13220146061413    3.04819957919047
C         2.91233110833049    0.13636411406152    2.95109401708693
C         0.43221707581020    0.89996973480291    2.92908275654357
C         0.74297435920188    2.33308723660821    2.66797169775503
H        -2.26992031841631    1.00909055040768    4.68258317121925
H        -2.92471256770825    0.57090954098569    3.11044633256511
H        -2.04192520481098    2.08699114533728    3.30040057674758
H        -2.60394929092650   -1.72149209823181    3.87939200634532
H        -1.39297205214797   -3.00065469102561    4.03292592875785
H        -1.59776123457392   -1.81717540707004    5.32267813863645
H         0.86668783262721   -3.38725851099118    4.09562425799426
H         2.44732952905503   -2.71938881732087    3.63857552605481
H         1.71209097852705   -2.29009671486118    5.17625596613609
H         3.16052508509424    0.57040859496643    1.98477025296840
H         3.49538510374326   -0.76747765185925    3.09265834659811
H         3.19261527784987    0.85612013620483    3.72017486763336
H        -0.15942570438779    2.90471266265511    2.47586435260374
H         1.40833357209914    2.42808123144949    1.81305208072511
H         1.24728328529121    2.75439572258505    3.53800516740053
C         5.76388969303788   -3.45480799823461   -2.58923583526584
O         5.02801141404448   -3.76856859812536   -1.40655266833356
C         3.70904748285047   -3.89846138946893   -1.51407641398334
O         3.09067490375653   -3.79328176279141   -2.54547219208787
C         3.08676339718406   -4.17508982781650   -0.16353859156830
C         2.67233520999918   -2.90326385339077    0.61082270278356
C         1.28112345027515   -3.52592267030735    0.84514082861471
N         0.16948295688192   -2.63902772472679    0.62971015862571
C        -0.78667359060515   -2.98832224624398   -0.16424689315257
C        -1.77206624795037   -2.00614730865905   -0.49899805460594
C        -2.73358266066958   -2.19492988366145   -1.49442466833191
C        -3.54909691415090   -1.13913182884212   -1.83909177410218
C        -3.34919307270801    0.09857734867837   -1.21688303543814
C        -4.22455075960627    1.16434204650028   -1.52174101067154
N        -4.97055638338574    1.99895684317944   -1.77070704281324
C        -2.33186450288192    0.23316327136256   -0.25501017741297
S        -1.94328687783320    1.77035275379743    0.49825056761825
C        -1.68943091102823    2.85778227186141   -0.93508719029375
N        -1.61149382554300   -0.82072689253971    0.13619370372753
C         1.61441604124290   -4.61046610336378   -0.19971436155927
H         6.79658652682975   -3.72445599770721   -2.38509283051548
H         5.37335855386162   -4.01990952140109   -3.43728157104815
H         5.68344975508592   -2.38749055487429   -2.80258576101223
H         3.74581946412770   -4.82326832640665    0.41075167304292
H         2.61339970473042   -2.02571920104077   -0.02869277748542
H         3.26527134404578   -2.67251374132791    1.48852531748493
H         1.18903092659497   -3.94729158913467    1.84861550248573
H        -0.82259306046006   -3.96439955985836   -0.63149330987204
H        -2.82207595964165   -3.15178898596358   -1.98132603507474
H        -4.32726495428022   -1.24575719919629   -2.57917265666752
H        -0.96273143147451    2.39544830181332   -1.59616316131205
H        -2.62275790923120    3.06844239931596   -1.44494705942188
H        -1.27953778920218    3.77334155624696   -0.51968185607646
H         1.20484831072697   -4.40157647683624   -1.18635556058511
H         1.40341043936374   -5.63745221384094    0.08348452907186
Cl        1.17056316920530    0.16895657143134   -0.36287386079434
