64
 energy: -92.919313650981 gnorm: 0.000928310293 xtb: 6.4.1 (afa7bdf)
Ir       -0.65251153942514   -0.70878536816137    1.37810068964775
C        -2.21242424629938    1.20621857307213    3.76489020620377
C        -0.98377677129156    0.54274980893948    3.24154212066465
C        -0.62531220607139   -0.80812941155675    3.59822300307953
C        -1.39200875415407   -1.67432168291495    4.53882227214702
C         0.72457744064750   -1.04391832624729    3.15808760288837
C         1.55959287382239   -2.21052814312331    3.55789210495453
C         1.14550143394665    0.09604187575047    2.42500116440283
C         2.51491590724972    0.34073228879914    1.88726451897492
C         0.07994974077426    1.09336358786049    2.47179679128204
C         0.28644923423876    2.51796260433391    2.03140816901792
C        -0.80209880384681    3.07331667354791    1.10640834719180
C        -0.42872381624668    4.48356013189578    0.65744643185661
C        -0.25167533438611    5.40012048024397    1.86583137057137
C         0.81323858033336    4.84424085834635    2.80764999898721
C         0.45205438362547    3.43114235121962    3.25719103672991
H        -3.08693292597427    0.57089989091429    3.64068980158645
H        -2.39776331062990    2.16238895768834    3.28940138636238
H        -2.07972938703073    1.37603971522331    4.83420462228085
H        -1.13711275994020   -2.72152775389414    4.40405182357740
H        -1.14497363843161   -1.39603084400535    5.56407416488850
H        -2.46311805923149   -1.55063647730375    4.40529034962350
H         0.96658352178360   -3.11773105144649    3.63780040135497
H         2.36783095284171   -2.38515309449842    2.85413638880889
H         1.99660640982685   -2.00435041287306    4.53562450144535
H         3.10394974905130   -0.57136497920666    1.89069560451356
H         2.47051413585621    0.72242926356269    0.86894541859140
H         3.02152430763936    1.08128297983075    2.50612635991348
H         1.22226616453559    2.55072817222743    1.46540078967924
H        -1.76144563681440    3.12159676948634    1.62205452235333
H        -0.90291218262981    2.42042484434105    0.23785930454425
H        -1.20714164073670    4.87931893238143    0.00188297697036
H         0.50107608816910    4.45280373672376    0.08501039290744
H        -1.20076500890309    5.48682600044418    2.40049254475390
H         0.03302581843565    6.40052161823075    1.53411574085205
H         0.91294305352077    5.49201820613843    3.68115088695495
H         1.77732035350638    4.83037842323309    2.29370434592603
H        -0.47599218397282    3.46099144756187    3.82832959329375
H         1.23505266063216    3.03777487255530    3.90835498313846
F         3.37342883136206   -6.19621235959693    0.93793239433901
C         2.35797310559481   -5.31261780088463    0.86219556597526
C         1.09024273407669   -5.71322323128707    1.25009156118316
C         0.04971776044304   -4.80806081414851    1.16202200102399
C         0.28902373575782   -3.50996145471859    0.70937693831495
N        -0.76061241021081   -2.58369272510221    0.61834836659367
C        -1.85087828653426   -2.90650662278084   -0.00274758735520
C        -2.87269231614670   -1.90523522744857   -0.06881252333255
C        -4.07461964790141   -2.04360349012404   -0.76471659726573
C        -4.96057396879208   -0.98324015008412   -0.79097388048001
C        -4.61657823863405    0.18972393775547   -0.12701146953557
C        -3.40754322501785    0.25912611641732    0.54311769530214
N        -2.55431951482327   -0.76050371977245    0.58673825162591
C         1.57697109490082   -3.12300541496727    0.33910656843260
C         2.61647701078159   -4.03052780756193    0.40330784250221
H         0.93110991136771   -6.71749745348702    1.60747357203609
H        -0.94402942360920   -5.09636579634598    1.46766871320868
H        -1.96954008167050   -3.86715866136021   -0.49002329785725
H        -4.28728815400279   -2.96746767692171   -1.27805677354800
H        -5.89650966730454   -1.06161871706373   -1.32103468244818
H        -5.27548037665411    1.04251719998335   -0.12724810205990
H        -3.11134821424821    1.16018134248693    1.05750243970731
H         1.73829152633299   -2.12229578075489   -0.03025311245363
H         3.61657777952709   -3.76125823423039    0.10304975185637
Cl        0.01751343097879   -0.01209897732727   -0.80931536869199
