61
 energy: -87.775853659333 gnorm: 0.000617343946 xtb: 6.4.1 (afa7bdf)
Ir       -0.13211220855524   -0.90925551269084    1.61715297392409
C        -1.84737813380665    1.60292076823348    3.17698307923567
C        -0.68719414827579    0.66836839811223    3.10929243619840
C        -0.62296828252534   -0.61394579044622    3.77700127172510
C        -1.70458061956585   -1.21439025650474    4.60946444780335
C         0.73916215418595   -1.05178164854934    3.76554047485972
C         1.26063275573993   -2.15998125285420    4.61379810008172
C         1.49150428920700   -0.12769579801401    2.97261795384504
C         2.97756393651202   -0.04184822131716    2.85732241905931
C         0.60756398201219    0.96512603662795    2.61013934754869
C         1.06891146803463    2.23762664164537    1.98981343811023
H        -1.77880395243893    2.17073410659239    4.10605709518615
H        -2.79157339900808    1.06466023042580    3.18694374337311
H        -1.83726726569867    2.31337953706249    2.35440147128642
H        -2.68798057948081   -0.99603287465642    4.20227044114164
H        -1.58585562728568   -2.29164088381681    4.68466123603210
H        -1.65619177695327   -0.79725969173420    5.61623805710069
H         0.73207916844930   -3.09321283245110    4.43224877999358
H         2.32454421127228   -2.31269780433655    4.46329212787240
H         1.10071163891423   -1.89160397775753    5.65877102038352
H         3.26818760029983    0.30835798683960    1.87005869325567
H         3.45448542904637   -0.99776021295715    3.04679594630151
H         3.34585377793700    0.67845317778087    3.58911315796670
H         0.23606281788674    2.89271879796555    1.75297890547712
H         1.62550273344532    2.03957529747117    1.07537515375787
H         1.73371773337673    2.75236958030889    2.68397887719015
C        -4.83959512949811    1.77066290789507   -0.08249745472249
O        -5.09684283227785    0.39228736073185   -0.31081512518605
C        -4.16496650366149   -0.51085884541091   -0.03237425692202
C        -2.91339592722217   -0.24407852036464    0.52877276123865
N        -2.01279090853043   -1.18977098419960    0.76640619731554
C        -2.27939158477598   -2.46555161192598    0.42082487407682
C        -1.15030201335054   -3.34180790553279    0.50332854409715
N        -0.01812337829698   -2.85734982726133    0.88727472161023
C         1.15461595507943   -3.67911043307776    0.63039183605032
C         2.39416618799527   -3.16146424298338    1.34607690903553
C         3.60650618682248   -4.03305383864361    1.02178674635495
C         3.86521202353976   -4.05764392059705   -0.48058473361538
C         2.62563849065388   -4.55805924922368   -1.21418521540725
C         1.41861589174408   -3.68532629854475   -0.88765263770218
C        -3.52094834509442   -2.83569320121622   -0.10550458013929
C        -4.46703793532742   -1.86097956706171   -0.31962470846216
Br       -6.17920373965876   -2.27464893550890   -1.03573677896274
H        -5.73042454090809    2.28906335116959   -0.43012393386683
H        -3.97311053303694    2.10658732023727   -0.65527396544598
H        -4.69391404652319    1.96791330814466    0.98132235714723
H        -2.62434841925521    0.76537769879289    0.77211172896055
H        -1.24244284065430   -4.36194666364543    0.14482571057992
H         0.94242753850213   -4.70600275778099    0.95558662008489
H         2.58010398986364   -2.13936732600124    1.01425564821257
H         2.22205100878122   -3.16870566089642    2.41902262995457
H         3.43102066448486   -5.05124785452439    1.37678571214305
H         4.48348538767070   -3.64605512718140    1.54259916936205
H         4.71584299056551   -4.70376407033948   -0.70316053033027
H         4.10908809487917   -3.05151172730280   -0.82719605141914
H         2.79718187751776   -4.54157672135890   -2.29164041906535
H         2.42163528760713   -5.59159890497120   -0.92421956970336
H         0.53784635317869   -4.05137559566075   -1.41859260061313
H         1.60285667325541   -2.65970092244750   -1.21023166122142
H        -3.72305430996808   -3.86542624011731   -0.35105564437539
Cl        0.60811268317333   -0.18692079417358   -0.52530694776924
