62
 energy: -121.772525697890 gnorm: 0.000727762896 xtb: 6.4.1 (afa7bdf)
Ir       -0.38324020890780   -1.09139932682743    1.28454672755725
C        -2.37858290970789    0.66383204408534    3.54494656449032
C        -1.07295173638427    0.05963170128457    3.17880409317676
C        -0.69790227997975   -1.29315583407877    3.49518429768286
C        -1.53687937881624   -2.25174600744073    4.26641546582487
C         0.70625320122496   -1.44144691116573    3.22386068651831
C         1.55310685412603   -2.55822254095666    3.72139721283663
C         1.16716778088618   -0.23219821255075    2.61213682038621
C         2.58053019534457    0.12533860634074    2.32326884457001
C         0.05338004365535    0.70479712783191    2.58871024038110
C         0.19825594413232    2.14709446974670    2.32984786060453
C        -0.13384100369455    3.05183350502485    3.33656176687609
C         0.05230538364201    4.40281625534741    3.11267249052397
F        -0.26734677068891    5.26926620689401    4.09496828712875
C         0.55598757244469    4.90059038061632    1.92459671657778
C         0.87378910283971    3.97610466835433    0.94519595004260
F         1.36497194928408    4.42253928990845   -0.22862173074958
C         0.70781329085618    2.61644197728262    1.12250629628189
H        -2.47161711317948    1.67450684188198    3.16186672149587
H        -2.45319405042882    0.68761927166996    4.63288522059753
H        -3.20956008141225    0.06484446097068    3.17898623989623
H        -1.25091677997386   -3.27797473307061    4.05797627932786
H        -1.39299042579165   -2.07042312126319    5.33212377533368
H        -2.59066216849415   -2.12113898865614    4.04036384694849
H         1.78829712297451   -2.35948059286738    4.76798857037633
H         1.03377505950159   -3.51053845774072    3.66989520348617
H         2.48826601979068   -2.62923272329595    3.17556705952001
H         3.21515180817564   -0.75436978101846    2.28116285953524
H         2.66705725915262    0.66614338777687    1.38537686411841
H         2.94506764790299    0.77824320442501    3.11627379908661
H        -0.50730893043524    2.72046971318021    4.29112828880836
H         0.69390317968964    5.95744155061673    1.76893728165422
H         0.94443386796950    1.93940955175690    0.31743860904614
O        -0.85008277580350   -5.58207970961731    1.45463916949302
C         0.41533470067288   -5.20884841094216    1.25180402390265
C         1.49884529895340   -6.05766556149818    1.47823783123527
C         2.79684457068817   -5.63718000716213    1.26894754514871
C         3.03470316356902   -4.33514334250842    0.84099341822132
C         4.42898031629700   -3.82640042923368    0.61602774592104
F         4.69072588382529   -2.74903285318062    1.38871505880097
F         5.37876461782759   -4.72689645288274    0.89409985600996
F         4.63753200180576   -3.42507053428975   -0.65115597796257
C         1.97926830946633   -3.46132031156745    0.62927695558598
C         0.66993881082876   -3.88646505589149    0.82110850784205
N        -0.37373911850278   -2.98503143551960    0.56580615825198
C        -1.38590871264425   -3.36845587444348   -0.14539819540057
C        -2.37042895662081   -2.38647606485377   -0.47181615713759
N        -2.15902356341633   -1.15233346363074    0.05083380025358
C        -2.93927141788425   -0.15598294002790   -0.36109218533209
Br       -2.55732511674866    1.58397627210739    0.24361073800217
C        -4.00993159117043   -0.33105178079997   -1.23171574669678
C        -4.27975934813737   -1.59566422610569   -1.72998527113087
C        -3.43331017132634   -2.62255019857629   -1.35297334418725
F        -3.60578634441356   -3.85395831258662   -1.83211303326047
H        -0.92217479970282   -6.49318310528516    1.78276215961970
H         1.31994843520978   -7.06820156123599    1.81256323099450
H         3.62089000069458   -6.31166328782697    1.43835628858682
H         2.15613550338407   -2.45440508209177    0.28144664826793
H        -1.46350031988280   -4.36772551731470   -0.55661156946741
H        -4.61549891409139    0.51695867832833   -1.50964077936492
H        -5.10366655464988   -1.77983160358752   -2.40180397582568
Cl        0.63275764608271   -0.40881181186917   -0.76582111032154
