61
 energy: -99.218991365973 gnorm: 0.000587307057 xtb: 6.4.1 (afa7bdf)
Ir       -0.59717529083282   -0.80305779282821    1.22707318910060
C        -1.57462808685407    1.81660330106429    3.20840246663029
C        -0.53252409518833    0.84619034739875    2.76849159793915
C        -0.28428705599079   -0.43061726992778    3.40099156726229
C        -1.01423883988544   -0.94870758186321    4.59217477536676
C         0.95090286259850   -0.94879023663911    2.88129326666069
C         1.69129244467335   -2.11886500904628    3.42626752817861
C         1.39740286019957   -0.06727511063142    1.85266313037233
C         2.70587884957134   -0.11155339969651    1.14115738293791
C         0.48627990988533    1.06568342559790    1.80430282493539
C         0.74097076334078    2.30307365829369    1.01528278342197
H        -1.20101712387854    2.35127669130581    4.08265415301182
H        -2.49102487689096    1.30900369632434    3.49849362483494
H        -1.78871513150364    2.55053058978713    2.43635246057754
H        -2.07806793728541   -0.73809633374277    4.52668042394146
H        -0.87251476124638   -2.01938983042778    4.70488372990051
H        -0.62841497687336   -0.45962917356875    5.48749237465138
H         1.01451470944179   -2.88430714586655    3.79550121737585
H         2.34788850146346   -2.56155777437958    2.68254190484580
H         2.30606517631079   -1.78101671741143    4.26149847710925
H         2.58550758507500    0.17211876740073    0.09816999163276
H         3.15303411363206   -1.09975081702130    1.19245864325445
H         3.38900674104411    0.60067125591643    1.60494191025945
H        -0.09249389089417    2.99573729716762    1.07484222908360
H         0.92126964913943    2.05968463103051   -0.02985375546411
H         1.63271786565016    2.79586092337675    1.40222913726892
C        -5.27339928705796    2.29782919243144    0.44784741200249
O        -5.63566997904476    0.97583685245977    0.07262077573010
C        -4.75892058974019   -0.01094215283807    0.17902085454173
C        -3.46072667170354    0.10142683157730    0.68379300948739
N        -2.62390732233570   -0.92767178234799    0.76514145958875
C        -3.02301794991223   -2.14726397464740    0.33326999433922
C        -2.00695229369396   -3.14985987685962    0.38675749016718
N        -0.82933787219277   -2.76683034996363    0.76918553247437
C         0.22998825373001   -3.68325298007945    0.83137899579356
C         0.10330341728957   -4.86374086292117    1.56572287217082
C         1.17280130496608   -5.73814040416045    1.64124005647250
C         2.34674004486182   -5.43874336538265    0.97464864186468
S         3.72778833138647   -6.59079293371802    1.07158644699975
C         3.36014304122229   -7.82252753596526   -0.20234515138224
O         3.69214999872032   -7.22981333977407    2.36607449904113
O         4.93626364400864   -5.88457678374226    0.71746812450962
C         2.47765026576762   -4.27862878953304    0.23250486798823
C         1.42097998550975   -3.38908090997838    0.16621176559991
C        -4.31260229018932   -2.35807272600419   -0.16888351044931
C        -5.17903646968366   -1.29455554265540   -0.24237379781008
Br       -6.94714520348101   -1.48950552546751   -0.91060438473643
H        -6.14932463051003    2.90514708914234    0.23080803687460
H        -5.04707869863588    2.35074191564011    1.51432697595977
H        -4.42611022106451    2.65197783911190   -0.14198126056010
H        -3.08491705916067    1.05291042377371    1.02580793565708
H        -2.20351985743385   -4.16721657551894    0.06970693814619
H        -0.81473140308619   -5.07427071290132    2.09192944260306
H         1.11792427766350   -6.64294656755487    2.22482258437992
H         3.30234667208196   -7.31356705555842   -1.15569575293218
H         2.42405658399130   -8.30129650632220    0.05430676505975
H         4.16779314318891   -8.54431601508473   -0.20400050145008
H         3.41311368862746   -4.08334385989969   -0.26704747580447
H         1.48991467285481   -2.48047903070206   -0.41181825663209
H        -4.61049896660409   -3.33813276682430   -0.50415323807101
Cl       -0.33877652504520   -0.40878160934537   -1.11463918270690
