62
 energy: -99.261742742284 gnorm: 0.000440503983 xtb: 6.4.1 (afa7bdf)
Ir        1.13709777836536   -0.28550772458477    1.54791860603686
C        -1.67366788114048    1.33541126867226    2.64615897157331
C        -0.36449803574723    0.68061568119906    2.89894297434212
C        -0.17265187361934   -0.66447231395737    3.32358021826153
C        -1.25031023545883   -1.67704743495869    3.49740061541520
C         1.21752603095085   -0.82252135954516    3.69428851817271
C         1.82217860117943   -1.99882057238938    4.36235492199400
C         1.88933222872633    0.44150375639884    3.48412381425307
C         3.27039540071912    0.77304316747732    3.91629322010144
C         0.91296172846725    1.37054732791081    2.97842960745465
C         1.12690101761115    2.82109310398582    2.76892861977501
H        -2.00556612100903    1.80405732497333    3.57399261717244
H        -2.42692668432894    0.61392440764893    2.34588670947124
H        -1.59728433697451    2.11328107993868    1.89171758594247
H        -1.98458787980303   -1.60596190243662    2.69836847713280
H        -0.85143548148828   -2.68651694821259    3.51446551363988
H        -1.75952845284861   -1.49500800468358    4.44398680459094
H         1.23377123126355   -2.89947891732558    4.21675690220123
H         2.84114287350514   -2.16922767340952    4.02207932230175
H         1.86770561509319   -1.79226613394624    5.43354746839310
H         3.68619965602378    1.57803779653242    3.31803240580472
H         3.92480527743730   -0.09093479948718    3.84927966466992
H         3.24321486021731    1.10022469087276    4.95624531280660
H         0.37438229639303    3.24782391594564    2.11280460820772
H         2.11565881051995    3.02103952422861    2.36400746900767
H         1.05765241242434    3.32227349727722    3.73621477713370
C        -5.03435565205631   -2.85268739691175    0.61454832087798
S        -5.60412567138850   -1.20167902166994    0.11211048845298
C        -4.07936277565591   -0.43680986018562   -0.20993341102898
N        -2.97891574903569   -1.14160432559580   -0.02495503201400
C        -1.79175078277930   -0.58789649485572   -0.25353132808310
C        -0.62735252766450   -1.45257788885395   -0.11368395492882
N        -0.68386588286363   -2.69506422235412   -0.23364293394085
C         0.34186307662738   -3.60016438622468   -0.16261033259656
C         1.29911080384568   -3.57136243939150    0.85643648906299
C         2.30140849957099   -4.52174398590172    0.89043937141227
C         2.34907913566541   -5.49257914461682   -0.09209758286913
S         3.66164697849642   -6.72152453377945   -0.04740174253902
C         2.89349094245904   -8.16705656967007    0.72564112336818
O         4.02731503195668   -7.05129463280540   -1.40485422152928
O         4.71014372492627   -6.22943644360671    0.81674048974244
C         1.40123037274397   -5.54518828747454   -1.10029559308430
C         0.38531501403595   -4.61114799672402   -1.13094917508370
C        -1.64337169726392    0.74042844820868   -0.65576218565859
C        -2.78971687174225    1.49203745754637   -0.87140369331731
C        -4.03503127363478    0.91183548104658   -0.65576562329508
C        -5.21764429121179    1.64921777095322   -0.87228864112676
N        -6.16735918022185    2.26760856909911   -1.05105111045875
H        -5.92115370466962   -3.47629138602436    0.65265587806111
H        -4.57059986701036   -2.78621866294764    1.59208928569534
H        -4.32852163255147   -3.21784946254473   -0.12250982134075
H         0.38190658628575   -0.87776523350207   -0.02891831743094
H         1.23668519227166   -2.81519585968925    1.63256685549885
H         3.06416607371021   -4.52154083833523    1.65242121786038
H         2.06629571531862   -8.48067434094114    0.10261781645934
H         2.56517078109210   -7.88283926325054    1.71659336419666
H         3.64485566876748   -8.94520859864446    0.78113621434956
H         1.48155231916390   -6.31099877336225   -1.85503400385949
H        -0.35939203593799   -4.62459375007172   -1.90981885394871
H        -0.66516585840932    1.16375118918108   -0.82559244868008
H        -2.72890920792660    2.51639726384381   -1.20675976304377
Cl        2.86299190861589   -0.24360113807004    0.09982812897519
