68
 energy: -105.330452030298 gnorm: 0.000237131538 xtb: 6.4.1 (afa7bdf)
Ir       -0.61706707405153   -1.11517002733158    1.55601926623187
C        -2.23089501552257    1.36942683323351    3.37181237862917
C        -1.07449065864349    0.45782170047141    3.14237041891965
C        -0.95079361304521   -0.84650557808144    3.75103880598255
C        -1.95181307872395   -1.46577277440585    4.66722231331392
C         0.41343736930640   -1.27205388238202    3.61566171162157
C         1.01559215377746   -2.37748601718871    4.41364255890072
C         1.08151533331592   -0.33254851163935    2.77538059079678
C         2.54039407215683   -0.27694735209056    2.46670295372267
C         0.16119903482677    0.76326813479250    2.51416176944278
C         0.56275639141622    2.04827113001461    1.87468995447513
H        -2.17859073041895    1.73206790173282    4.39937754125338
H        -3.17826004381608    0.85102839795214    3.24912336531109
H        -2.21107016195908    2.22513104604855    2.70548479660070
H        -2.96523060987236   -1.21524029526135    4.36680717509965
H        -1.84606022623826   -2.54687493060200    4.69029300880657
H        -1.79560209525074   -1.08781382414610    5.67838438838931
H         0.47875453958629   -3.31521715973504    4.28497569765504
H         2.06553109747230   -2.51609485081538    4.17566233273672
H         0.94488410534110   -2.10632098831362    5.46802113837715
H         2.70268146741097    0.16210305186102    1.48575312705833
H         2.98685533581451   -1.26680534574241    2.47574395290733
H         3.04739479821296    0.34182491351469    3.20805368885362
H        -0.28036486798311    2.72564694244972    1.77825384325817
H         0.98322360530523    1.86828582050821    0.88642664765089
H         1.32919651846122    2.52826400259224    2.48273910805266
C        -8.04338075921879    3.95411827374646   -0.70617852815710
C        -7.44786564936718    2.57867186409034   -0.45158233054550
O        -6.04116144685115    2.73665069410824   -0.30083921811006
C        -5.27115958566011    1.67152825972880   -0.05765353709315
C        -3.88260236423253    1.94827780936270    0.06605295455412
C        -2.99034838823278    0.96249483716809    0.35527967079320
C        -3.42025933877145   -0.37341473680536    0.51511274132190
N        -2.53084757419016   -1.34649764287691    0.79740251918388
C        -2.91150372091077   -2.63274335367581    0.70398038244100
C        -1.81775005154920   -3.54907627415319    0.68525201830825
N        -0.62800185833806   -3.07670221345172    0.91155125049495
C         0.47997505207787   -3.80198822623898    0.45595090344577
C         1.63253559562269   -3.95674638711274    1.22530089543556
C         2.72877402867746   -4.65671714715022    0.73071254956560
O         3.86625805745507   -4.89726715650948    1.41252403927191
C         3.98747606373979   -4.44470750804855    2.74785771791235
C         2.68537944068526   -5.17489221213073   -0.57048206743512
C         1.56414822220978   -5.00536031559298   -1.35150128181787
C         0.46755658355081   -4.34095836756007   -0.83462656869698
F        -0.62585714856722   -4.18293781711174   -1.61817884368815
C        -4.25512606023084   -3.00467540019519    0.49759911361989
C        -5.20031034111140   -2.03006638814685    0.35313154067261
C        -4.80160252949549   -0.67336142132523    0.31371392719764
C        -5.70870819137448    0.36563612113147    0.05803841953331
H        -7.61189116688183    4.38729422352725   -1.60424984598266
H        -9.11821097714414    3.86881098450134   -0.83449329915487
H        -7.83642099350852    4.61344309684671    0.13209146357603
H        -7.86878413063475    2.14298927488664    0.46299922539770
H        -7.65599411094631    1.91083761978397   -1.29662143763566
H        -3.56466631328416    2.96705878259529   -0.08668360613975
H        -1.93197666217947    1.16403445334942    0.40956369772747
H        -1.97694633454094   -4.57648945586189    0.37730616314736
H         1.63669303534112   -3.53382270940552    2.21290351909821
H         3.98257302627923   -3.35256168248905    2.79221599667378
H         3.19554675341488   -4.85576099005944    3.37850241564828
H         4.95253205105774   -4.81166775478283    3.09079274342453
H         3.54714414011429   -5.70314761270924   -0.94337700002557
H         1.51937161872897   -5.38638053349536   -2.35890992031682
H        -4.50856807256773   -4.05133015492491    0.46179956872612
H        -6.24247988573213   -2.27907811108914    0.22734108123323
H        -6.74740297338538    0.10868142520978   -0.07165005706467
Cl        0.25346931303517   -0.60228248458007   -0.60792851060035
