84
 energy: -143.093326366129 gnorm: 0.000681124350 xtb: 6.4.1 (afa7bdf)
Ir       -0.84958622159164   -0.68212242372278    1.23142082634214
C        -2.23088523766793    1.31990188718113    3.66269362649052
C        -1.05685377537096    0.58279820325329    3.12347319988252
C        -0.76262860928391   -0.78429661855024    3.46956791955718
C        -1.55687460489010   -1.59812337255940    4.43566134424246
C         0.56219944717603   -1.08192657794682    2.99841255888248
C         1.41531474418648   -2.23210751324718    3.40322323630369
C         1.02495262373866    0.03558323359663    2.24911976674872
C         2.40965899304773    0.17815641561948    1.71958687923507
C         0.02242363067725    1.08922967277620    2.33739725934379
C         0.30373062986390    2.47880474289190    1.96357940561186
C         0.02193216808667    3.52547965789756    2.84112598504094
C         0.39994288268308    4.80964873191408    2.49933848429179
F         0.10329872739664    5.81449458309431    3.35366065940539
C         1.07314239603012    5.11202635249321    1.33078035033988
C         1.33186255826453    4.05535649641702    0.47664990604467
F         1.97609777745456    4.30072948267220   -0.68247773331012
C         0.95628835573354    2.75783634644827    0.76252402420849
H        -2.37212872198653    2.26979412557955    3.15885686594271
H        -2.06657522640212    1.50139122696687    4.72603674472618
H        -3.13871851079205    0.72778731455303    3.57168010534277
H        -1.35066332943966   -2.65815397112543    4.32428015974872
H        -1.29138999221453   -1.30439043262992    5.45184977209083
H        -2.62231906881887   -1.43174169138687    4.30505862241978
H         2.17852559017308   -1.86462037911019    4.09091873512267
H         0.83987123957145   -2.99495771824400    3.91500743959480
H         1.92000345511299   -2.67388261243928    2.54759972884567
H         2.46413366391344   -0.12280956802259    0.67376458752362
H         2.73456970957111    1.21441497217724    1.78316858506879
H         3.09436722442878   -0.45033424470123    2.28330373729210
H        -0.45090451997033    3.35707229843748    3.79344409196984
H         1.36257630516177    6.11924581566130    1.08414202960581
H         1.14241400793888    1.98050031356505    0.03972649948413
C        -2.60825360642229    8.13041041936836    1.30427077771575
O        -2.90755986521138    6.73824486960606    1.25316648233525
C        -2.14119466710562    5.98108687990239    0.46763477343058
O        -1.22843471497793    6.41748612844889   -0.19938316776287
C        -2.52950813092597    4.54785261446882    0.50352813536901
C        -1.83194728144398    3.64543700924931   -0.29452223623535
C        -2.15287918425310    2.30129771448262   -0.28194311830875
C        -3.21060006856227    1.84857960652744    0.50264422877227
C        -3.68436209536658    0.46117006215007    0.36980219892617
C        -5.03496257358508    0.28911965529043    0.04508494125791
C        -5.53959584110369   -0.96809278451591   -0.23248009112566
C        -4.66371545788696   -2.03979824301998   -0.21141139250206
C        -3.33962811765820   -1.81481794753561    0.15053343307046
C        -2.35931416777897   -2.86137761547017    0.16360431228693
N        -1.17544686163932   -2.56923482633445    0.57682829852117
C        -0.16322714450019   -3.54880912115578    0.49468227768233
C         0.07273615726666   -4.37759316980400    1.58516860018621
C         1.07030434665464   -5.33412144084048    1.56482666993476
C         1.88624158899998   -5.46678555815862    0.44058712841761
O         2.90080588345383   -6.33968531175679    0.31435690771233
C         3.19407438521138   -7.21498748125856    1.39067117759209
C         1.63187298900947   -4.65128621060014   -0.66764099806534
C         0.60696210937763   -3.72200163275868   -0.66646500872825
C         0.34503744464550   -3.01420342944435   -1.95814279487224
O         1.20765143282428   -2.71457689749469   -2.74672653839430
O        -0.96482160502562   -2.88732950758918   -2.18694135219309
C        -1.35132481707431   -2.25582328375182   -3.40491035870767
N        -2.85743810350972   -0.58674528839386    0.47944583728781
C        -3.92710314280783    2.75954365401898    1.28382393940493
C        -3.57615691409993    4.09387811054895    1.30432561706332
H        -2.47460054834038    8.52613645167454    0.29608576674170
H        -1.69105764054055    8.29277701839628    1.87361623726938
H        -3.45275344246669    8.60182935350822    1.79902298324017
H        -1.04879677478146    4.01958201479909   -0.93462429316077
H        -1.60972424495954    1.61025007817597   -0.90579491954898
H        -5.66614583447467    1.16147137724568   -0.00942425816778
H        -6.58018565281820   -1.10397716366692   -0.48112296269568
H        -4.98351749779372   -3.03761339386198   -0.46276187823369
H        -2.60191299466241   -3.85147453049481   -0.20429580756099
H        -0.56066352182730   -4.28346496703714    2.45231076730539
H         1.20314382556484   -5.96764457184555    2.42604825359922
H         2.34827819909108   -7.87272126447566    1.60573034427815
H         4.03991491884108   -7.81130745758496    1.05553410131388
H         3.47451407413766   -6.65814840922077    2.28798384802619
H         2.23504339490968   -4.77013109868809   -1.55363631059368
H        -1.18721033237366   -1.17986325814073   -3.32510138932001
H        -0.76251096195862   -2.64380804495212   -4.23729304448388
H        -2.40610719998586   -2.47683487619964   -3.53797433908456
H        -4.75078235552714    2.41712858040959    1.89144720279303
H        -4.11512084373405    4.79374091735333    1.92183129645647
Cl        0.07398714528478   -0.28562547927117   -0.92537168175782
