65
 energy: -101.790083554332 gnorm: 0.000420250397 xtb: 6.4.1 (afa7bdf)
Ir       -0.44149324764363   -0.98561120058430    1.32896167927035
C        -1.52561662247559    1.62149551129086    3.32839112955625
C        -0.43196894263216    0.75670532160615    2.80154815609271
C         0.05354114970454   -0.43961908197964    3.45141233252722
C        -0.45582289143791   -0.96734253842783    4.74961549045431
C         1.29086308182863   -0.81371402462715    2.81699272684859
C         2.29355977484564   -1.77967955633297    3.34283868571586
C         1.48672528920430    0.04711080972140    1.70143645284855
C         2.70323371994100    0.10813949625349    0.84383329360365
C         0.42588806372759    1.04376364003472    1.70881561716111
C         0.41596792896845    2.25651534755317    0.84461454914086
H        -1.11531754819158    2.24972280321539    4.12021368947127
H        -2.33130632853861    1.03220961304521    3.75906669213818
H        -1.92381892091351    2.27713396809459    2.55866228641139
H        -1.52961689893246   -0.82882963018575    4.83646534676699
H        -0.23098453305995   -2.02369876777843    4.86382818025705
H         0.02284681236355   -0.42575116518618    5.56658386897587
H         1.87613875242635   -2.37629120010060    4.14754478484510
H         2.66492474263167   -2.43815169251005    2.56045904366167
H         3.14094750674308   -1.21738927067919    3.73683785877706
H         2.44077757580911    0.37505777547430   -0.17693525022316
H         3.22165913520004   -0.84629177328184    0.83472088628040
H         3.38053984870471    0.87032778448205    1.23070819877713
H        -0.51853782768795    2.80270969490742    0.92988746561417
H         0.56654843976015    1.98464553995136   -0.19823533882374
H         1.23361913409041    2.91349592855173    1.14176002069195
C        -8.45017962015312   -1.19187771841211   -1.15204560236498
O        -7.14096179071469   -1.02979457636694   -0.60639630579778
C        -6.31037168555336   -2.05845312071402   -0.71748832982336
O        -6.58631590389093   -3.11034925325137   -1.24513951359323
C        -4.97232386109630   -1.76935573063970   -0.11613723675778
C        -4.67453873012735   -0.55458910890434    0.51034860263147
C        -3.40857989386865   -0.36057190489356    1.02566756850110
N        -2.44811184643079   -1.28303609469568    0.96246334698709
C        -2.72608473778916   -2.46424460787161    0.35080620535175
C        -1.61313740393544   -3.36053985161526    0.29625599996525
N        -0.50615919773265   -2.96172494253099    0.84015502061031
C         0.63185570594965   -3.77635394654068    0.70907315444836
C         1.18356860837577   -3.99191214095295   -0.54545070207238
C         2.29727455845227   -4.80462946103560   -0.67907631962114
C         2.84732843729747   -5.44616195516974    0.42120976195981
O         3.91197970666116   -6.27647368081632    0.39177527035652
C         4.51662799241154   -6.56795319190651   -0.85245916178255
C         2.26578193839692   -5.24765911544923    1.70288587704059
O         2.84222154560552   -5.93766320577574    2.71264353779156
C         2.28711110178895   -5.83949795424637    4.00960245757252
C         1.18098514467874   -4.39923653699538    1.83465256101569
C        -3.98105014572642   -2.73428561519168   -0.19280279955326
H        -8.99856240242225   -1.94957990482557   -0.59016313242623
H        -8.93228589437353   -0.22269134268264   -1.06383441827092
H        -8.38776015017539   -1.50255029615076   -2.19608409411968
H        -5.42198466393085    0.21708576002414    0.58798460705079
H        -3.15482312215400    0.57098445462089    1.50756589309491
H        -1.69253267430071   -4.32510131797622   -0.19086279367067
H         0.76542092311451   -3.49356160392612   -1.40492231847738
H         2.72224191133744   -4.94301491429422   -1.65913092138720
H         4.92989887159820   -5.66741370631227   -1.31530047826535
H         3.80865635467776   -7.04411095784644   -1.53662433276420
H         5.32380760482310   -7.26147240523594   -0.62605347727345
H         2.87693362642130   -6.51333581307861    4.62745142013798
H         1.24144634773775   -6.15854914117825    4.01958392377577
H         2.37383314843423   -4.82232411264301    4.39982385532351
H         0.70771132253681   -4.24612722279969    2.78945797254869
H        -4.18089125034224   -3.67515971801889   -0.68088796770888
Cl       -0.33799107000740   -0.64736137611690   -1.03440697732840
