74
 energy: -117.721784259968 gnorm: 0.000621066797 xtb: 6.4.1 (afa7bdf)
Ir       -0.63077903512297   -0.50023294877244    1.43725887261865
C        -2.02872431981240    1.28070627631861    4.01690578968863
C        -0.83155608178122    0.62906642093233    3.41752049218609
C        -0.44908809126697   -0.73891840714613    3.63942194991667
C         0.86425014991545   -0.92804321309526    3.07823223723206
C         1.75788007876900   -2.09050969483030    3.33449600022942
C         1.23376423059471    0.27094036238716    2.40683746083708
C         0.17657818040749    1.24875131261945    2.62182995480433
C         0.31478680920017    2.69097725327030    2.36301908008218
C         0.26442195129821    3.57894493390653    3.43709797602596
C         0.46421062957592    4.92981327919492    3.23711950806329
C         0.71747943840167    5.43552672015672    1.96283391353047
C         0.95409579578815    6.87234720931003    1.75761011125869
C         1.95080983384035    7.30632683843458    0.88559681910855
C         2.18488360097698    8.65642232783776    0.70014740532984
C         1.42327941730550    9.59529102240990    1.37711285898434
C         0.42690482296251    9.17504274941401    2.24312090750991
C         0.19575513169490    7.82520045374682    2.43507490070651
C         0.75152016400468    4.54500409363839    0.89075904277609
C         0.55467040692509    3.19221752657989    1.08520408666608
C         2.57842282816160    0.56760569374799    1.84048819396805
C        -1.14897599662584   -1.68229565109737    4.55731317604370
H        -1.87707923406373    1.36970329570983    5.09316517193457
H        -2.92473852528435    0.68393026909584    3.86125434088582
H        -2.18595652309962    2.27244217064837    3.60316984417633
H         2.27905916884887   -1.92122094721140    4.27748875172626
H         2.50289007728026   -2.19625749374250    2.55158250568304
H         1.19960663461682   -3.01862189562814    3.42075703752666
H         0.10238759171653    3.20376536197090    4.43568679429391
H         0.45145075472704    5.60022218450553    4.08325725481232
H         2.56057841927163    6.58109879143083    0.36651826451979
H         2.96565037012066    8.97930480257434    0.02668809449652
H         1.60571732634318   10.64983275855571    1.23038163127725
H        -0.17176422977408    9.90382603921759    2.77044985407410
H        -0.59201856801857    7.50754389722370    3.10245866067753
H         0.92073078492623    4.91917186387666   -0.10772654148970
H         0.56624628531551    2.52015324745112    0.23999480510397
H         2.95008098047545   -0.26398745502268    1.24716027765285
H         2.54900747304052    1.45869515274560    1.22064929959042
H         3.27723262724211    0.73741116277925    2.66049969836613
H        -2.22636423041798   -1.55042485070199    4.50638117927630
H        -0.90341229424135   -2.71427134228656    4.32298970745442
H        -0.83287755257835   -1.48393384291363    5.58216995566075
Cl       -6.20415501920347    4.13705743670172    0.35582580591746
C        -5.17259728420470    2.75372156975190    0.46455048287630
C        -3.81163504694294    2.93888820786499    0.76884511451340
C        -2.97783877695126    1.86117573842037    0.87776315060024
C        -3.45594397827276    0.55133158219293    0.67098783946512
N        -2.62472301806898   -0.51214163988387    0.78198181425329
C        -3.06587075560451   -1.72824455980101    0.42044772520799
C        -2.05901923774478   -2.74272883813148    0.40326603573861
N        -0.85990290776336   -2.39117118107727    0.74759155860702
C         0.18912217290949   -3.31489165225929    0.68913041730313
C         0.03642104814761   -4.61333735868553    1.18032009098242
C         1.08535557884295   -5.50919946102311    1.10869946240647
C         2.28427562700783   -5.11310926316650    0.53205422350016
Br        3.73812807810708   -6.36147894697744    0.42115214596297
C         2.44856432274971   -3.82601624991627    0.03860109353997
C         1.40625237864688   -2.92513679368562    0.12790648573466
C        -4.40222213437054   -1.96922020052819    0.04201406796937
C        -5.28679016172617   -0.92962439099980    0.02372585849625
C        -4.82626015919121    0.37534751022868    0.31250572268077
C        -5.67197346571028    1.49653193164822    0.23552699848761
H        -3.43338015831958    3.93817303819765    0.90929846055166
H        -1.92777492856060    2.00829200126495    1.07418048299711
H        -2.28057712620981   -3.74010908184813    0.04151160891577
H        -0.89147619454170   -4.91079490701888    1.64366857347736
H         0.97476452167507   -6.50885523234371    1.49688206104612
H         3.38355336337805   -3.53403121475882   -0.41183268500862
H         1.50585115974140   -1.92588095429719   -0.26834962864958
H        -4.70030194864179   -2.97193000077762   -0.21662881143778
H        -6.32400545161172   -1.08059188505200   -0.23139136847927
H        -6.70956824678841    1.35492551439927   -0.02112360018782
Cl       -0.10182253244149    0.17333255232571   -0.79059651271879
