76
 energy: -122.615564943166 gnorm: 0.000492333889 xtb: 6.4.1 (afa7bdf)
Ir       -1.16519260622472   -0.57374031164874    1.22739726635633
C        -2.22515843218498    1.64535316356305    3.63865176297260
C        -1.20806749552718    0.66958697495737    3.15713433538494
C        -1.23760688393263   -0.74391530780923    3.44953693457745
C        -2.25677025243417   -1.40610861644878    4.31422103648223
C         0.00483282238789   -1.30407373999096    3.02307633079039
C         0.52485629996703   -2.65606978243347    3.35836402398386
C         0.73940426819622   -0.28918685006276    2.33348715129176
C         2.15724046660010   -0.41440595918170    1.89557780558871
C        -0.00293915170518    0.95457188401406    2.46165412544977
C         0.54212430074615    2.28352461580063    2.14559177721860
C         0.63305427300899    3.24035778562073    3.15524246735877
C         1.20119911514693    4.46688137373312    2.86809643443927
F         1.29210391971103    5.38438160994602    3.85340958570256
C         1.68285439257155    4.79033066821759    1.61232605739054
C         1.57266378260886    3.82036693854711    0.63082073014328
F         2.02454117194658    4.10522066769198   -0.60746922422479
C         1.01619135546170    2.57818259005240    0.86849192533852
H        -2.05032901005814    2.63085949165086    3.21795581825790
H        -2.16307288377577    1.71177654312954    4.72540824525935
H        -3.23278241244174    1.31873297162082    3.38922847286091
H        -2.27605508225690   -2.47926150495481    4.14739619881466
H        -2.01060279359925   -1.23067770291146    5.36203767602979
H        -3.24820426774152   -1.00117660341245    4.12872945136903
H         1.05768573212126   -2.59299056801310    4.30813183154693
H        -0.27714918919504   -3.38002019288315    3.47142346812524
H         1.22380324354025   -3.00837630493266    2.60484716331500
H         2.28723845474464   -1.24438499584795    1.20436113743348
H         2.49511254294587    0.49626204235635    1.41081142414506
H         2.78497851910931   -0.60226367012504    2.76692080060632
H         0.29643885250114    3.03309201738632    4.15768135386615
H         2.12454092213107    5.75126167680058    1.40823692292052
H         0.92432596252624    1.86517555888008    0.06323061560079
O         3.78039730161919   -4.57140461009085   -1.38556199867744
C         2.99125408512318   -3.73013665735767   -1.02051404676594
O         3.20942187320507   -2.42642360174468   -1.14966859343715
C         1.68900092546402   -4.04578719792675   -0.37317913253629
C         1.46117473576290   -5.34590537532957    0.07412936348851
C         0.25836208064604   -5.66383963715141    0.68001574602364
C        -0.72456698105352   -4.70120684127431    0.82465792995167
C        -0.50864298305878   -3.40068276485885    0.35978537562259
N        -1.50466429781540   -2.42075770601464    0.49530941667936
C        -2.74145228454225   -2.72064096572012    0.28864313700335
C        -3.74696307912993   -1.71205513188026    0.46639880969555
C        -5.08547964071366   -2.05611614727056    0.49719681201681
C        -6.00169195892238   -1.05575954671475    0.82655707453446
C        -5.56249628954596    0.23525809269753    0.89053339103212
C        -4.20008958883185    0.56620031588545    0.59931041098896
N        -3.89408256097232    1.83805280018976    0.33133332058810
C        -2.54677518026068    2.32856157376434    0.12229011281327
C        -2.47028656032526    3.80938963189748    0.47572644736671
C        -3.29339835845559    4.63814700988636   -0.51458195582733
C        -4.45962404258502    3.79548362762138   -1.03672565955651
C        -4.94404371309424    2.80536092190620    0.01972384328749
N        -3.28262937590626   -0.43588045644143    0.60032377171678
C         0.70981624424705   -3.07067677388957   -0.22695042140911
H         4.04944201763062   -2.24161904142674   -1.60619893416811
H         2.23724029018762   -6.08352974328609   -0.05685303696821
H         0.08503698200611   -6.66533152582175    1.04085142815810
H        -1.65210775876961   -4.94896783562601    1.31757848221459
H        -3.03769045508492   -3.70845549936372   -0.04804121055338
H        -5.39111435138812   -3.07633842427890    0.34493726338288
H        -7.03322971250163   -1.29841021553729    1.02493728943411
H        -6.23865543243762    1.01806923832887    1.18651432268405
H        -2.23969082425684    2.17358182481233   -0.91629467904112
H        -1.86275374446521    1.75749442809718    0.74872353462854
H        -2.85193691621204    3.95426848593323    1.48708806956911
H        -1.42749857373209    4.12501368135569    0.46675295486900
H        -3.66288846672242    5.53776543411041   -0.02152406723159
H        -2.67191625248994    4.95603413461575   -1.35170393240151
H        -5.29359129266304    4.43592189700596   -1.32308793599401
H        -4.15568657567193    3.23848699619286   -1.92373592573605
H        -5.81063982668715    2.28103686991751   -0.38419060224277
H        -5.24128122532236    3.34562341076792    0.92454213317832
H         0.87294261803282   -2.07240252453186   -0.60213335611548
Cl       -0.53407978716606   -0.00963061476809   -0.99974705859502
