57
 energy: -80.532566159175 gnorm: 0.000256259977 xtb: 6.4.1 (afa7bdf)
Ir       -0.29578183316705   -0.90060843074865    1.35304768901949
C        -2.04182846360888    1.44116006609641    3.20831585897776
C        -0.81323443672521    0.64769584878924    2.92788286067505
C        -0.46780045579408   -0.59659452441043    3.57462073951665
C        -1.30007067874949   -1.29595854382417    4.59497945817051
C         0.92299223379848   -0.85230888726377    3.32007213025871
C         1.76411428123742   -1.81481578837762    4.08176056024311
C         1.39412070509272    0.14273902437749    2.40953304538645
C         2.81233394070469    0.40779192441333    2.02833528900067
C         0.31542580607047    1.08767781361966    2.18711196460357
C         0.47836486856292    2.38831189321860    1.48287091727447
H        -1.86091495914038    2.03937517982199    4.10323988003126
H        -2.89905812944224    0.80372447251645    3.40718588867265
H        -2.27163468383413    2.12999189336621    2.39914212788933
H        -2.35982775590865   -1.18069392447967    4.38672287114755
H        -1.06530057160833   -2.35581410980716    4.63553564080584
H        -1.09879879134045   -0.86572326646945    5.57682917856149
H         1.19138636818268   -2.67856733259378    4.40652860082646
H         2.62880263591305   -2.13763693585763    3.50991848818957
H         2.12867244370614   -1.30447288538644    4.97528695591156
H         2.88994307716853    0.66074029605822    0.97318080072263
H         3.45204091066100   -0.44445238631966    2.23595535633114
H         3.17817986201190    1.25995936279455    2.60223866876643
H        -0.47997185570586    2.84904886317952    1.26335094344247
H         1.01987562383504    2.25350752169434    0.54930910791628
H         1.05422201709792    3.06661225529967    2.11308784215577
Br       -5.78547396926305    0.62375504957724   -0.11193412480477
C        -4.37822372420001   -0.65965180640064   -0.14656291357795
C        -4.52236931666751   -1.85418545164080   -0.85037046184515
C        -3.46527883361333   -2.73858023333956   -0.83624922886779
C        -2.30980248676232   -2.41790556859986   -0.11762833638921
C        -1.13407698011131   -3.23256056562540   -0.09995021020261
N        -0.09641830643005   -2.82913455415063    0.55154647033653
C         1.07585174975513   -3.68011483560965    0.48297069581990
C         2.36490257479913   -2.86455221608410    0.32333193832325
C         3.57740634951652   -3.61194746566212    0.88766344825118
C         3.41372167466960   -5.11460743933273    0.68584009951970
C         2.24080112698949   -5.64083365987010    1.52484933591298
C         1.15784155313847   -4.57325458813136    1.72843732840844
N        -2.19656323705051   -1.26144132705862    0.57665181749983
C        -3.20495936715485   -0.39946237191926    0.54658615242351
H        -5.42838900045511   -2.06901676271377   -1.39400534845333
H        -3.51673868984227   -3.66872493570434   -1.37922347402781
H        -1.12392340843745   -4.15482495983463   -0.67218858053551
H         0.96517878695904   -4.34144560739510   -0.38490427563490
H         2.24323146172972   -1.90391224064099    0.82120083424882
H         2.51368809864245   -2.65868349088033   -0.73678862820345
H         4.48107516063513   -3.26168507029540    0.38828305637193
H         3.69550249335706   -3.41543237811339    1.95400856547359
H         4.33001809085641   -5.63433865915835    0.96731083713603
H         3.24279983894901   -5.31236616188795   -0.37387243071747
H         2.60104199508579   -5.95918603771288    2.50368966348590
H         1.81343423668583   -6.51679467845403    1.03516669020281
H         1.38972527377912   -3.95471209203639    2.59029153382843
H         0.19337006483331   -5.05129822194409    1.90253491396666
H        -3.09031368473002    0.52936685573970    1.08198351699250
Cl        0.21148831534630   -0.19320692483716   -0.87057174948808
