51
 energy: -73.870932167223 gnorm: 0.000678494069 xtb: 6.4.1 (afa7bdf)
Ir       -0.49959376249591   -0.81951197161070    1.15219936530470
C        -1.91949289812430    1.58134038994374    3.17247636540884
C        -0.76555456495153    0.70874443592652    2.80874304023996
C        -0.51886349797432   -0.60777463835503    3.35985457070052
C        -1.36173789882904   -1.27915443887936    4.39071775324838
C         0.81410703546978   -0.99853886606719    2.99031214875578
C         1.55159757030270   -2.17110258458777    3.53639617648704
C         1.33205378915669   -0.00348081529550    2.11185256236844
C         2.73194138359411    0.10040860394048    1.60918236594229
C         0.35929309919513    1.07407141392776    2.03098400243496
C         0.62814617661234    2.38888435165051    1.38412608884682
H        -1.68108245276620    2.10739839151672    4.09798130573528
H        -2.82114723309853    0.99907161508592    3.34383870891946
H        -2.11253995790906    2.32787087498403    2.40619259713025
H        -2.41759545131450   -1.08063918796180    4.22902503244778
H        -1.20107325200641   -2.35358291496711    4.38994757867948
H        -1.09243912034560   -0.89763204785956    5.37624748298928
H         0.88643864534956   -3.01069576081932    3.71872382849798
H         2.34287000984303   -2.49127005361467    2.86461060048142
H         2.00432235081421   -1.88649504420644    4.48653630572305
H         2.75095448181172    0.52480909359999    0.60812108620027
H         3.21852659728667   -0.87036393264243    1.59171492805132
H         3.30034974958055    0.75993401661184    2.26584572967094
H        -0.25138576284599    3.02545358225179    1.39150542837370
H         0.94834386531814    2.25076393425056    0.35286285226075
H         1.43142282192653    2.89510721034777    1.91976002801648
C        -1.51789262388974   -3.21090494676482   -0.02555129985007
N        -0.43812619718635   -2.72056053706253    0.49552558847300
C         0.71943214055010   -3.50863099237985    0.58211643375150
C         0.67340643643274   -4.77873729598856    1.15612715002015
C         1.82849857471616   -5.53465548556989    1.23815950878699
C         3.02418283680714   -5.04182216962808    0.73771116487887
C         3.06622006027640   -3.78220353052620    0.15772486477435
C         1.92276985652132   -3.00873072590905    0.08693503176822
C        -2.65415295073172   -2.33988045510019   -0.08443245499299
C        -3.86829792531262   -2.65868260871133   -0.69421599720792
C        -4.87166558473692   -1.70896002470965   -0.72562199279750
C        -4.63000782384256   -0.46271304631881   -0.15700259126067
C        -3.40155773968756   -0.21505876435974    0.43086141897540
N        -2.43651361178372   -1.12772260892795    0.48402864800086
H        -1.54950493847220   -4.21227888572716   -0.43836461030506
H        -0.25705148938613   -5.15207663980318    1.55593713329037
H         1.79406284264075   -6.51184840371848    1.69418054558126
H         3.92082935731354   -5.63863590434446    0.79816647586103
H         3.99368712710315   -3.40195130675406   -0.24170991036508
H         1.93188384621954   -2.03562143438234   -0.37889349429636
H        -3.99936573137794   -3.63199751645352   -1.13881881565695
H        -5.82091935888536   -1.92688011485056   -1.18871290497144
H        -5.38310972089563    0.30820846806265   -0.16662096027456
H        -3.18471572192174    0.74546018514047    0.87284639196848
Cl       -0.06763538406455   -0.12189891238261   -1.09229125706075
