77
 energy: -122.702272694199 gnorm: 0.000687125128 xtb: 6.4.1 (afa7bdf)
Ir       -0.50079471483017   -0.57400357700395    1.46456469536690
C        -1.48670844736286    1.05681548725165    4.31432240358703
C        -0.39719934620842    0.44679681798984    3.50640685662489
C         0.01462925859561   -0.92193614839600    3.61068841899534
C         1.20447913340009   -1.08882126107479    2.81927723636279
C         2.13820196137414   -2.24702736096180    2.87558930433185
C         1.49437287168540    0.16266807303268    2.18626180525234
C         0.49302713596819    1.11688128497306    2.60069961668651
C         0.59491986226619    2.56317400967523    2.36710702867185
C         0.56687181703918    3.45273745508373    3.43959676475748
C         0.71034210326811    4.80948700675704    3.22691089035848
C         0.88684562401267    5.31974552167375    1.94198573812642
C         1.04201224962212    6.76499792846619    1.71956227068190
C         1.97421407716119    7.24454438509080    0.80119759679867
C         2.12711629991394    8.60366830815817    0.59787958692122
C         1.34673660372540    9.50595497855515    1.30241037087223
C         0.41334240514864    9.04023784230639    2.21432677749589
C         0.26410836875539    7.68166496929637    2.42449533366107
C         0.91870939527518    4.42480541836073    0.87266773615340
C         0.77787509567772    3.06785226428713    1.07950825996702
C         2.73381406768902    0.46955081621316    1.42299591132221
C        -0.53860795208547   -1.91946193565939    4.56978130632497
H        -1.16056417475919    1.11790657620870    5.35359393060051
H        -2.38434057253406    0.44309166388267    4.29090813958155
H        -1.72752102837628    2.05405789266908    3.96099933239503
H         2.86182105970484   -2.06382188733342    3.67139812296242
H         2.68045118000657   -2.35839031463657    1.94147110368292
H         1.61785500187161   -3.17418048558129    3.09686067976195
H         0.46517254434961    3.07951768794915    4.44616955192071
H         0.70993486015702    5.48296058639374    4.07064091097900
H         2.59875822868473    6.54932806115871    0.25943222752164
H         2.85895066271476    8.96198369498444   -0.11177698431488
H         1.46556986005072   10.56734742603764    1.14092346929984
H        -0.20055891052244    9.74010758691141    2.76279635604576
H        -0.47663553849953    7.32702600009126    3.12632655588501
H         1.04000259231806    4.80107571425012   -0.13238365339838
H         0.77647456188672    2.39093101152078    0.23876077097176
H         2.68160749479575    0.07006382179639    0.41125164772531
H         2.87590466059080    1.54482601547486    1.35261365376092
H         3.59173156664957    0.02056426216053    1.91940835085162
H        -1.60500938238690   -1.77351479619016    4.71741359554975
H        -0.36110309329903   -2.93460647785811    4.22466984524448
H        -0.04460886489477   -1.79883010104188    5.53445631025280
C         3.90738813679014   -5.46466560464760   -0.67285965178458
O         2.99138285761745   -4.38837613083298   -0.56988207319308
C         1.86793607828537   -4.54623505017779    0.15010755797014
C         1.53081534813369   -5.70043496040557    0.85897009187944
C         0.33973540333175   -5.74316839347362    1.56797166631428
Cl       -0.06258026085771   -7.18185141494539    2.45314349141008
C        -0.53884878895138   -4.67517405178823    1.58455478987583
C        -0.18897093109518   -3.52006415178219    0.88224453821907
N        -1.05903181276773   -2.41662833041686    0.86111523841376
C        -2.28082734033726   -2.59249329970186    0.47225764253573
C        -3.12160690837724   -1.43879263904633    0.38838354540563
C        -4.38745279930267   -1.46116446993564   -0.20043026683455
C        -5.09109880273725   -0.28046095401759   -0.29779333519794
C        -4.50592207212392    0.90433208728310    0.16187660365351
C        -5.30138009749515    2.07044180128546    0.13676210583017
N        -6.01934027830102    2.96525777677508    0.12581214042434
C        -3.20068203285187    0.86884698943586    0.69739068909132
S        -2.30898738701258    2.25605444369593    1.24642165965944
C        -2.83181672383108    3.63623878007271    0.19125936429747
N        -2.55471976093786   -0.29730785898421    0.84377617463621
C         1.00294307265719   -3.44774029701689    0.17958061215459
H         3.44295634721498   -6.33700548982078   -1.13911986948752
H         4.31090972394838   -5.73629053557521    0.30555693543682
H         4.71115814233324   -5.09950332040690   -1.30859102549935
H         2.17618911775139   -6.56221220716799    0.86733730069901
H        -1.45825214206153   -4.72608529105789    2.14335599357085
H        -2.64039177399936   -3.56244448896422    0.14894442761168
H        -4.79316858426326   -2.38772973625712   -0.56997585790199
H        -6.08607486920552   -0.25231874344504   -0.71518829151904
H        -3.69951916283086    4.13807196755313    0.60495441003162
H        -1.97807709342184    4.30895061418095    0.18542107575404
H        -3.02429061742287    3.27667247242584   -0.81355459432767
H         1.25389678516801   -2.55959327872906   -0.37781950947181
Cl       -0.06830935165367   -0.03438745704374   -0.80245840626028
