67
 energy: -106.786155944035 gnorm: 0.000590987639 xtb: 6.4.1 (afa7bdf)
Ir       -0.77369668544654   -0.79499098721148    1.44634558307628
C        -2.15641590746343    1.55285328042268    3.75437502069260
C        -1.06434949501992    0.68551819811969    3.23883092456070
C        -0.91390449713489   -0.69305253067068    3.67730185469857
C        -1.84811888198799   -1.38465535447688    4.60876444343366
C         0.39782623892721   -1.13124987940758    3.33392798816350
C         1.07268424165395   -2.34570001450590    3.86547007882721
C         0.99516228114206   -0.10241505224468    2.52291636617802
C         2.42058937701090   -0.06516238574487    2.08950165163523
C         0.09933224333561    1.05226324494742    2.52176042311635
C         0.54350533997091    2.41533467830652    2.07074746691051
C        -0.39622276478102    3.12891637244944    1.09450106718122
C         0.22474787102261    4.45316182771284    0.65873933837411
C         0.49281105198970    5.34361737215579    1.86944059663179
C         1.40610492335300    4.63233016530547    2.86418281885671
C         0.79341304580554    3.30479856722589    3.30181816216075
H        -3.11622643875167    1.04401284479333    3.73097220185850
H        -2.24023196832231    2.48243203451179    3.20482650821698
H        -1.93233759897446    1.78130866184578    4.79780307982406
H        -1.70569623145808   -2.46122812025672    4.58428884298203
H        -1.65523003503965   -1.03987830804925    5.62529889903881
H        -2.88394408129181   -1.15816560739667    4.37091566104402
H         0.38102068871721   -3.17663510000243    3.97558550744541
H         1.90177887089125   -2.65699800540012    3.23755984488614
H         1.46672555901860   -2.10515573103932    4.85381933316400
H         2.85142812877258   -1.06137985912693    2.07176051836355
H         2.51722077500593    0.37727965920300    1.10127381585523
H         2.98912029229090    0.54480965144574    2.79203382623515
H         1.49886478639914    2.29398316584486    1.55226888800477
H        -1.36204161797173    3.33054338523586    1.55608863848731
H        -0.56147739824790    2.49259594777083    0.22513712716768
H        -0.44832272744007    4.96119731812141   -0.03416598017869
H         1.16259277150506    4.26452165624498    0.13104046352100
H        -0.45403886558952    5.59019882243073    2.35518619466152
H         0.95355559398224    6.27947458399163    1.54723177661362
H         1.56712716652050    5.26525331849196    3.73919104686621
H         2.37835157377877    4.45424536543118    2.39909620305631
H        -0.14756076429958    3.49699730501872    3.81573900412866
H         1.46394498943967    2.79674632866994    3.99723682295407
O         0.86777414935599   -7.24117460830359    2.54045344434893
C         1.85236183297065   -6.72692554384958    2.05963123732630
O         3.04228880872014   -7.31037965554903    2.03835212851977
C         1.84541602171046   -5.37531079831493    1.43375735194753
C         2.99368246897177   -4.81452034466118    0.87899999792596
C         2.93237159679537   -3.55469214598461    0.30439573164051
C         1.74430495088323   -2.84585294535808    0.28746433175733
C         0.59212278702004   -3.40826130341212    0.83975085345928
N        -0.61280005262695   -2.69018896548909    0.78901537338045
C        -1.67576458667107   -3.29123038590575    0.35651963275045
C        -2.86754987732921   -2.51742084790103    0.21559696522809
N        -2.77657317825466   -1.22515888466157    0.61315093522847
C        -3.79445340522714   -0.41650141897044    0.33790548045576
Br       -3.60281394968948    1.40095451953409    0.73945714315236
C        -4.98261139902801   -0.84129406508743   -0.24556778426345
C        -5.11986290984890   -2.17403761287816   -0.60105282686509
C        -4.03735716989800   -3.00503118823305   -0.38183059215291
F        -4.08282455617735   -4.28829507423276   -0.74917244506687
C         0.64354001635700   -4.67696387793868    1.40838209729729
H         3.02656018285354   -8.19186357214878    2.45286217979002
H         3.91913912638486   -5.36654762029810    0.90019406145473
H         3.81681653049117   -3.12186359951988   -0.13580112942657
H         1.67940648775656   -1.87506341201716   -0.17877787711187
H        -1.65894784113503   -4.32476328817923    0.02902000118207
H        -5.77886165700670   -0.13431442643149   -0.41537093225963
H        -6.02313222902843   -2.55402718303644   -1.05134781630947
H        -0.22873976943878   -5.12747665765023    1.85757394693680
Cl       -0.33757523087528   -0.05826691387547   -0.77081149871204
