74
 energy: -105.526509703520 gnorm: 0.000632651381 xtb: 6.4.1 (afa7bdf)
Ir       -0.51604510482035   -1.05756865163740    1.25131910862181
C        -1.98848993455392    0.86834529240725    3.69073313895190
C        -0.77605794484167    0.22008585709752    3.11152207263274
C        -0.35835604929584   -1.10778161185279    3.48846578841193
C        -1.05346788797965   -1.94464513787578    4.50901921735266
C         0.96909911086878   -1.31980838645155    2.97373002413908
C         1.90907707611502   -2.41136991245388    3.35888176766209
C         1.31396177070400   -0.18679895831056    2.19177664718962
C         2.64891396901222    0.06200033916611    1.57718254370629
C         0.22671042351220    0.77953879467314    2.26738115934717
C         0.37446182505551    2.19672658517192    1.78146840188995
C        -0.77061340213147    2.70090653006388    0.89686440930829
C        -0.45162671975078    4.10433241548571    0.38879146956947
C        -0.23686383626235    5.06083402845977    1.55940363125437
C         0.88454978667146    4.55619237498547    2.46397594324588
C         0.57916382182962    3.14901884235923    2.97061355817086
H        -2.85670978911881    0.21592226072450    3.62162888316311
H        -2.21439083480846    1.81548494858495    3.21412212684920
H        -1.80420070823859    1.05560167950680    4.74955266819318
H        -0.72719058530271   -2.97925205661040    4.46440089249174
H        -0.82291630690076   -1.55848145609103    5.50274069571105
H        -2.13162919697546   -1.91114753854503    4.37807188781793
H         1.39937902772845   -3.20593526411764    3.89286060194418
H         2.40621179062774   -2.83770611082999    2.49034236480034
H         2.67461532025399   -1.99484204927594    4.01426372514723
H         3.23124221194332   -0.85369546874975    1.53512211413425
H         2.54788551926021    0.45135519750178    0.56593810576862
H         3.19331105053974    0.79572330549678    2.17235230042726
H         1.28050122332339    2.23445817029097    1.16899886505796
H        -1.70388736435588    2.74498119079548    1.45855712260278
H        -0.90013266630949    2.01976895084660    0.05375116445152
H        -1.27004903010402    4.46308955135555   -0.23893401339657
H         0.44983687466230    4.07514279370747   -0.22759737173868
H        -1.16064903154562    5.14390394137445    2.13717865694173
H         0.00921959296577    6.05651155302015    1.18481115794523
H         1.00994472409176    5.23144454181396    3.31302364409303
H         1.82305483200739    4.54875318823801    1.90451158614880
H        -0.31949689841092    3.17566474897529    3.58714401748396
H         1.40239017797765    2.79190819865668    3.59237437017134
C         5.32966416532170   -8.83542956561602    0.61936197725401
O         5.09369562559453   -8.00626515493899   -0.50101533947246
C         4.10918291287545   -7.07956219406879   -0.43094779745070
C         3.94942747398549   -6.29124912977007   -1.59877984956307
C         2.99663246754036   -5.32166759876728   -1.66105207954806
C         2.13724225188053   -5.08037251835430   -0.56369536702687
C         1.12985345802312   -4.10366158731020   -0.60925354582661
C         0.31793183017719   -3.88623294124947    0.48215448473325
N        -0.69494089140573   -2.91377739762814    0.43319366416987
C        -1.66555542187009   -3.06346212143354   -0.41033656383085
C        -2.65016567779437   -2.02498175244696   -0.45234267738574
C        -3.77092113742321   -2.02877057622194   -1.28436802668809
C        -4.65295552046438   -0.96785029420933   -1.22666614113946
C        -4.39003928952420    0.06865686174259   -0.33595987089769
C        -3.25574899823749    0.01213423408560    0.45304994326091
N        -2.39835484627584   -1.00551327336096    0.40838634669168
C         0.47187037483418   -4.66353873162727    1.64885605166577
C         1.42798214691224   -5.63630429264197    1.70093560364116
C         2.29272956679078   -5.86942063982427    0.60808733762965
C         3.28961066784218   -6.86268669326795    0.65324540666913
H         5.61707071285347   -8.24556150925801    1.49424935154061
H         6.15410471787486   -9.48542468959991    0.33343845706029
H         4.45129256957663   -9.44308822354340    0.85463307030376
H         4.60901780820264   -6.48985698533301   -2.42874624155125
H         2.88326812843950   -4.72471005372335   -2.55340998238467
H         1.01330770029958   -3.49485963176588   -1.49326250749336
H        -1.73509860841988   -3.93669471748655   -1.04847626178234
H        -3.92333754398175   -2.85357714817900   -1.96153462916367
H        -5.52632253894826   -0.94209485715529   -1.85882078006878
H        -5.05490707895366    0.91280848805660   -0.25376194001024
H        -3.02849629858563    0.80714395359689    1.14529125790422
H        -0.20551672634809   -4.49959028658051    2.47112740631202
H         1.53247464442157   -6.24776405017214    2.58445128802878
H         3.38615524481916   -7.44556126890838    1.55543095695610
Cl        0.20360927252124   -0.43609533099753   -0.93893845018600
