81
 energy: -120.496700366415 gnorm: 0.000368784372 xtb: 6.4.1 (afa7bdf)
Ir       -0.95196888531697   -0.66083614646933    1.27555300326223
C        -2.34508832629438    1.11704056566012    3.87477471133828
C        -1.14887107768959    0.47322783252533    3.26231346508282
C        -0.75851865992286   -0.89561639276666    3.47318281800151
C         0.55775148992282   -1.07211058996419    2.91455005208255
C         1.45366173915970   -2.23362598583036    3.17227223789614
C         0.90908117423060    0.12576774400157    2.23565891992183
C        -0.15251715174527    1.09820542367214    2.46342097278523
C        -0.02188961459309    2.54137212104319    2.20646085215618
C        -0.04512070255300    3.42382673692862    3.28574774643172
C         0.14685495209294    4.77634077152678    3.08796898086441
C         0.36551325330886    5.28863728677637    1.81021596545885
C         0.59289620407590    6.72680185251015    1.60333746563110
C         1.56856666722036    7.16497080003858    0.70992867869767
C         1.79262530103108    8.51597400335550    0.51887891371208
C         1.04184513837231    9.45166441411293    1.21207445997734
C         0.06670143879616    9.02726666374430    2.09996384680901
C        -0.15438545684996    7.67642602173521    2.29721781828096
C         0.37168205105451    4.40362081181032    0.73327157054509
C         0.18147141488919    3.04982080294292    0.92584650423333
C         2.24077216337193    0.44827420788950    1.65068363589292
C        -1.44682750364165   -1.84509540683188    4.39530932401669
H        -2.19559863095791    1.18458879995740    4.95288311622359
H        -3.24348398996190    0.52744736462527    3.70369599945405
H        -2.49790158241834    2.11706866379531    3.47920157660571
H         1.98072607599616   -2.06074368434425    4.11136919063504
H         2.19282279995739   -2.34839374638213    2.38489864041959
H         0.89392964935253   -3.16037242476577    3.26447282983833
H        -0.18258901971685    3.04274272022913    4.28614456406443
H         0.15390507301530    5.44269667328214    3.93756841982937
H         2.16931585561513    6.44164101473706    0.17768798226062
H         2.55726289698542    8.84156238543445   -0.17172713410411
H         1.21614782755699   10.50689939451409    1.06058187931373
H        -0.52360316544083    9.75360590789140    2.63992801182293
H        -0.92660095038354    7.35504352564831    2.98092524986106
H         0.51267258219489    4.78312575692228   -0.26768980816356
H         0.16928019980705    2.38245909382520    0.07697539005099
H         2.73367471519641   -0.44531804962954    1.27727087459586
H         2.14482854918884    1.16512661665073    0.83985033803825
H         2.86937175923415    0.89300511640292    2.42339079928027
H        -2.52428145530657   -1.70702757213271    4.36442189200626
H        -1.21291330504949   -2.87610406781907    4.14436711450266
H        -1.11085219996754   -1.66119088845609    5.41650901079273
C        -8.31232397571756    4.90807936803056    0.12887387242867
C        -7.74842059622211    3.49625364815281    0.10881594797995
O        -6.35436283493625    3.58214519533904    0.38554989279172
C        -5.60964032320763    2.47211092562059    0.41435082767009
C        -4.23193190468252    2.67560247631017    0.69381458957635
C        -3.36571253487657    1.62979261626179    0.77990929608422
C        -3.80777484264781    0.30435243233068    0.57375127639676
N        -2.94745194419706   -0.73250898180663    0.66039613024299
C        -3.35919925621920   -1.96142591364925    0.30463644233463
C        -2.32023858597983   -2.94109360576717    0.26095286974647
N        -1.12705031113267   -2.55096227325549    0.58043103621002
C        -0.04689184147664   -3.43799116312702    0.50021559804105
C        -0.15378760351443   -4.74567316224829    0.97632672422666
C         0.92675315417879   -5.60217899759618    0.87862841642627
C         2.11055358663099   -5.17217522115009    0.29823286858208
C         2.21681641739109   -3.87292683489587   -0.17578694050275
C         1.15042647406157   -3.00055925018682   -0.06628698683784
C        -4.69580737654637   -2.23620998635761   -0.04692723269627
C        -5.60727172667178   -1.22048299895139   -0.04574776841430
C        -5.18104938358588    0.09669589711020    0.23954778493346
C        -6.06233527918813    1.18722396642339    0.18719075860231
H        -8.14749150988338    5.36304120429840    1.10143739505660
H        -9.37864612777834    4.87856323023587   -0.07386179850917
H        -7.82368128835706    5.51669891521374   -0.62705221939158
H        -7.90284088651135    3.03886737452583   -0.87612418440819
H        -8.23676320667141    2.87826487965726    0.87258559937391
H        -3.89593969210037    3.69073755929493    0.82917354095523
H        -2.31696657938914    1.80618562872493    0.95687863059415
H        -2.51590732866829   -3.94460364767790   -0.09873564041075
H        -1.06929112244000   -5.07367122995436    1.44491598643959
H         0.84424222765919   -6.60966531405366    1.25589016481498
H         2.94859271303743   -5.84673419126704    0.21819328437248
H         3.13533908586190   -3.53801554083667   -0.63265806267466
H         1.21213235580230   -1.99209573998283   -0.44568602110501
H        -4.97202069574414   -3.24576478106955   -0.30283388307236
H        -6.64372698457525   -1.40117305306727   -0.28500580240782
H        -7.09399800363318    0.99019703685743   -0.05491975588164
Cl       -0.49692356188898    0.05652639372806   -0.96070651795925
