83
 energy: -118.245652191132 gnorm: 0.000668139270 xtb: 6.4.1 (afa7bdf)
Ir       -0.29949716033912    0.18192514944174    1.42206479533370
C        -1.85565938306306    2.47382658176486    3.49092285151084
C        -0.71036701878667    1.58965307174776    3.12520557757592
C        -0.48680025302564    0.27696949973539    3.68118601207667
C         0.87524345425227   -0.08319869382534    3.43650547786359
C         1.59264574129948   -1.16721761153365    4.16508204743926
C         1.45473485220967    0.92129808998852    2.59982505408592
C         0.48904320465480    1.99824587015674    2.47144200073156
C         0.75403785798024    3.33905715512463    1.94132541391759
C         1.87238578727283    4.04443685805797    2.38499490497127
C         2.11660069726944    5.32718356735608    1.93808696258200
C         1.26342862854078    5.94087802756932    1.02293159427206
C         1.53411765668593    7.30258222038233    0.53918441676132
C         1.36625630352145    7.62547812537816   -0.80596754173196
C         1.62689090934094    8.90542968129154   -1.25991625171262
C         2.05098978241788    9.88528825554581   -0.37692148575192
C         2.21663771349570    9.57649225628640    0.96350345715765
C         1.96404310689237    8.29507178263116    1.41793948749225
C         0.14910556024274    5.23144691179560    0.57779149340077
C        -0.10727031036861    3.95549459062341    1.03532256634081
C         2.88995243661348    0.98849403979421    2.18885410175756
C        -1.39787842704601   -0.43065057330848    4.62662466664422
H        -1.63607575102095    2.93056484192263    4.45785703420069
H        -2.78094651818105    1.91317797672668    3.59828255739117
H        -1.98879724957704    3.27574706504095    2.77029715994345
H         1.60603963643613   -0.90220029392880    5.22363974323754
H         2.62065368350864   -1.26098405742043    3.82931109485080
H         1.09267902327052   -2.12912968283503    4.07976627822613
H         2.54005937039252    3.59521462373650    3.10343440872221
H         2.99221090641786    5.85531360692278    2.28588350233921
H         1.05164899359031    6.86217520184741   -1.50269674358607
H         1.50129146850754    9.14070085346524   -2.30703212999724
H         2.25296661273640   10.88508720299131   -0.73229129042644
H         2.54445014024724   10.33810766973514    1.65630031709716
H         2.08105762139794    8.06556389355345    2.46722378547215
H        -0.52964950785214    5.69198788785984   -0.12463716688511
H        -0.95921034775539    3.41428541021334    0.65307229149896
H         3.25152203523453    0.01209107625683    1.87561357307179
H         3.01554294114683    1.68771746590000    1.36609567795240
H         3.50344141881539    1.32294118005743    3.02619275641616
H        -2.44089773188933   -0.23395818458323    4.39563607304264
H        -1.22856117155917   -1.50362757326895    4.60352863554308
H        -1.20333647510185   -0.07966584759095    5.64100697756871
C         4.47046192219667   -3.28191339900338    1.68202028384988
C         3.50648427531929   -2.84388794758698    0.58310168259539
C         2.03983181741585   -2.75301038326883    1.03627258686466
C         1.50042448584425   -4.13495801100166    1.42398717973817
C         0.04221584506049   -4.14506655274399    1.87989875160685
C         1.22814430257858   -2.09746123196746   -0.08980234628013
N        -0.04328409630145   -1.54413069567914    0.30609986743320
C        -1.09391110249274   -1.93605042638941   -0.32968680443448
C        -2.32557759510484   -1.24254744997915   -0.11652624817356
C        -3.52962367110956   -1.55861840445101   -0.75420825982077
C        -4.62613187764606   -0.74954370039517   -0.57352558912409
C        -4.50189351229203    0.39110814056410    0.23649602272655
C        -5.59092434923647    1.30867157620827    0.44195433147157
C        -6.88984604052404    1.30644145022408   -0.02338812366017
C        -7.49766376050912    2.46699985898127    0.49204062711911
C        -6.53779946316939    3.09682592793127    1.23244623480483
O        -5.39186525026703    2.40969698598209    1.21029718460729
C        -3.26653018215516    0.62398161180065    0.85331407819847
N        -2.21879016167668   -0.16924644173488    0.70283512546286
H         5.49415103827229   -3.20738961326158    1.32259551532264
H         4.37414602419650   -2.64817708210610    2.56047154333937
H         4.29790670553985   -4.31228299311931    1.97870894014492
H         3.82348658584045   -1.86333457963324    0.21990760475915
H         3.58160279987530   -3.53899171331412   -0.25564940992320
H         1.98448223297906   -2.09928587095687    1.90590125445177
H         1.62301625337616   -4.82054707333761    0.58302033012402
H         2.11760103092539   -4.51073067954791    2.24073130850598
H        -0.17761786726378   -3.27596689790706    2.49547969907222
H        -0.15464309894467   -5.04008513812429    2.46562966539362
H        -0.64156509870154   -4.14510688469023    1.03678215650195
H         1.80327595451496   -1.25111221678676   -0.48157563183826
H         1.08717090775687   -2.81726777333091   -0.90258162896801
H        -1.04869870330265   -2.72392419025321   -1.07491929651053
H        -3.57820553674512   -2.42787670382569   -1.38959618225876
H        -5.56184116348181   -0.97457182714862   -1.05721363904746
H        -7.35302207110246    0.57386431173195   -0.65108497469755
H        -8.50536140915129    2.79055266045839    0.33489081023657
H        -6.55720276538002    4.00672440417354    1.79934179626263
H        -3.15107382680387    1.49442995328259    1.47938987144206
Cl        0.14295218282976    1.15708982753444   -0.71062445574886
