69
 energy: -119.438418181049 gnorm: 0.000462462397 xtb: 6.4.1 (afa7bdf)
Ir        0.30559748583267   -0.26449713309456    1.27413668715172
C        -2.18350109894155    0.58865673768217    3.36603765897904
C        -0.73763623645800    0.34272167839927    3.13773176172170
C        -0.06597872738470   -0.89186125986747    3.43305908309886
C        -0.72000229656008   -2.10800378183611    3.99228541390755
C         1.31868048384903   -0.67843450844043    3.19152560554412
C         2.42365981063709   -1.63724063458205    3.46507428125462
C         1.52157017377103    0.75660753981084    2.91620161759896
C         2.85469266080399    1.41598004109539    2.88539806467391
C         0.26800306386123    1.37690417162877    2.91672564513376
C        -0.00788459095249    2.81325301867812    2.78819722234344
C        -0.69515735870202    3.47478297571022    3.80262816225088
C        -0.92097270208738    4.83344768486572    3.68591689627629
F        -1.57676989907640    5.46617040847689    4.67791888952528
C        -0.49987132369351    5.56912958638876    2.59221479429256
C         0.17166823147172    4.88160482387180    1.59749829041072
F         0.59009166214969    5.55407497911285    0.50726243963360
C         0.42689203629223    3.52569632831335    1.67321164342776
H        -2.51413456192572    1.50844254959034    2.88867499329551
H        -2.36192583745358    0.67677664122029    4.43877882263576
H        -2.78005366737536   -0.24584620193113    3.00494861327109
H        -0.03156503530112   -2.94676404290980    4.00932266325837
H        -1.03053653146351   -1.90002381771089    5.01642772577001
H        -1.60776372585491   -2.37631583737215    3.42426128818183
H         2.71520307475863   -1.54874437298482    4.51221540880753
H         2.11109599036541   -2.66243389921084    3.28590620642085
H         3.29865610923146   -1.42286336177742    2.85796096519548
H         3.55469943918181    0.87768049347229    2.25148363755208
H         2.77481110345720    2.44542044702589    2.54988872487852
H         3.26444742459410    1.41499083422337    3.89637265707492
H        -1.03085601389360    2.95522490267795    4.68458855248266
H        -0.68978561163028    6.62662501222058    2.51789580533673
H         0.94564174434862    3.03810736524349    0.86323436579715
C        -5.24839701369693   -1.54476217869662    1.32451068392650
S        -5.19557342433246    0.22343073010881    0.91260058546441
C        -3.55696794186042    0.37644628029279    0.37328693720203
N        -2.77893296358977   -0.68401877640021    0.41630209202257
C        -1.53898133436497   -0.61663213151183   -0.08376341281201
C        -0.60858698172524   -1.69573252190718    0.14567563904050
N        -0.46205075861812   -2.83599984323769   -0.28234340385521
C         0.38381659779510   -3.88626859740728   -0.04358452804185
C         0.36599417818466   -4.55227366232847    1.18585176934178
C         1.16632045224061   -5.66210587754569    1.37216340975744
C         1.98047111413466   -6.09874439404531    0.34241447173234
S         2.97861027495623   -7.56973112853947    0.58620433699259
C         1.85283416856818   -8.93125002805273    0.18325152940411
O         4.06506028132385   -7.56421013044016   -0.36675223090753
O         3.33432657301327   -7.65826659523542    1.98507238121870
C         2.00566598884505   -5.44923680383940   -0.87867705888400
C         1.20220676739728   -4.34374060760933   -1.08054397972819
C        -1.00438771777285    0.57603790266068   -0.66475254760959
C        -1.82217169335952    1.71164036990242   -0.64959035849552
C        -3.09397326188897    1.63895113249085   -0.10875083428198
C        -3.93644241807647    2.76908865109939   -0.08381209635330
N        -4.61032256041904    3.69746585087273   -0.06030830497060
H        -6.29783669172833   -1.79641664888706    1.43606703232926
H        -4.71939188474067   -1.71316671453770    2.25588968198569
H        -4.79571076661899   -2.10578209369085    0.51502837145899
H         2.99187447465833    0.28598179960827   -0.60219969508038
H        -0.28705334459010   -4.20034114390937    1.96735704000567
H         1.18891405228443   -6.19034067998277    2.31189547500506
H         1.53667798779130   -8.80756481698971   -0.84417911458621
H         1.01509122254050   -8.89056792121091    0.86699575932250
H         2.40076102656129   -9.85742087515364    0.30524011213515
H         2.66258512430979   -5.81739943861739   -1.65023982622276
H         1.20622087449655   -3.82644652783641   -2.02652549402012
H        -0.15345003805281    0.55047810851774   -1.33756064080164
H        -1.47564028530335    2.64192414437163   -1.07531985177424
Cl        2.25208964576610   -0.68416620029680   -0.23512051710500
