76
 energy: -123.426146177800 gnorm: 0.000839313943 xtb: 6.4.1 (afa7bdf)
Ir       -0.66883422467207   -1.41340358865785    0.51659003069995
C        -0.91391270932515    0.31072969275399    3.38712111694543
C        -0.03993023351167   -0.23998266951038    2.31264109415750
C         0.62963930575026   -1.50086592539516    2.34951582871633
C         0.61089441249347   -2.47173959276638    3.47900774670266
C         1.47234170409241   -1.59509720244291    1.18536483818337
C         2.52398673618880   -2.62875877381515    0.96003469938502
C         1.34340733636192   -0.38061897833412    0.44356638411973
C         2.17394355669739    0.00650325401148   -0.72836477248322
C         0.37187385674544    0.44504742044068    1.10982403371300
C         0.07749709461758    1.83938976992096    0.75174152978221
C         0.22998835979471    2.85393638429459    1.69548919947386
C        -0.02026201708734    4.16106702087000    1.32270756688197
F         0.13283326717601    5.13629303967590    2.24219062760343
C        -0.42139545897220    4.51039814165211    0.04525503895088
C        -0.56175877366641    3.48113471024846   -0.86989140900728
F        -0.95604390606941    3.78251881082310   -2.12391109474294
C        -0.32303637800157    2.15940591170206   -0.54588805662906
H        -1.49933926218530    1.15069711371992    3.02418456517293
H        -0.29352464186380    0.65233804269869    4.21642341568965
H        -1.58784191483608   -0.45049327664489    3.77294956824410
H         0.68462378745838   -3.49482722291527    3.11713619560281
H         1.46967153027291   -2.28102977512320    4.12338299310406
H        -0.29151570735925   -2.36739371189165    4.07414913294916
H         3.45173884712669   -2.29707903194819    1.42809460650319
H         2.24315875771054   -3.58048270251965    1.40123193892905
H         2.71142381266068   -2.77699273382067   -0.09971796280152
H         1.82428481522029   -0.49107306180420   -1.63334622859411
H         2.12552213725268    1.08034268830888   -0.89335675157498
H         3.20798375653848   -0.28944415695531   -0.56050518934169
H         0.56496080036258    2.64254319879522    2.69715188441836
H        -0.61087683530466    5.53548251718664   -0.22572984297596
H        -0.46222152986955    1.38889734825222   -1.28879396897170
C         5.23978653619883   -5.95699083589847   -5.46196381533710
O         5.36231949552079   -6.33350952376215   -4.10630295973688
C         4.30256806232916   -6.14859130822247   -3.27519666373339
C         3.07522088345066   -5.60627018330276   -3.64626304504285
C         2.07152149947612   -5.45879037605314   -2.70606381956584
C         2.25352873820492   -5.85324832432237   -1.38405043111294
C         1.17691040015142   -5.69899060229446   -0.39695302878896
C         0.94504285594877   -6.67475015726434    0.57507739260136
C        -0.07694955271563   -6.52724080746436    1.49675331379814
C        -0.89416773516198   -5.41112499473233    1.46995450128314
C        -0.66294753361176   -4.42528370962992    0.51083622578290
N        -1.46092007270077   -3.27110151200875    0.46718290504491
C        -2.74827546350000   -3.37180227297506    0.41651966608391
C        -3.49247641177386   -2.14177198959731    0.39702801832978
C        -4.86613023779591   -2.05940581674237    0.25821274913274
C        -5.48332314901229   -0.80019032750669    0.21745239610334
O        -6.80153080292025   -0.78244595177633    0.07877399946157
C        -7.48825730841666    0.46068807542734    0.01642493484614
C        -4.65325422405990    0.32750714598152    0.32437824347857
C        -3.29185392260475    0.15591664676308    0.45897540511986
N        -2.70876508684714   -1.03745600624367    0.50466592508893
C         0.36830536837260   -4.56681458295644   -0.41118071969887
C         3.48548337276249   -6.40157516769672   -1.02196160173918
C         4.49445358135959   -6.54226946890429   -1.94738742275316
H         5.03543263974530   -4.88667142922892   -5.56201755341720
H         6.20233927057362   -6.18488674093008   -5.91606931812550
H         4.45607087229165   -6.53062259656634   -5.96627848073138
H         2.88915558043312   -5.29926129344387   -4.66326979038176
H         1.12138362545000   -5.05232474934408   -3.01894704166585
H         1.55954450677308   -7.56104587755518    0.59490250992862
H        -0.24249379418474   -7.29027130409804    2.24151547191717
H        -1.68312587837702   -5.28403784648300    2.19476941843985
H        -3.24561044449977   -4.33278560901227    0.35831600296860
H        -5.46886099411975   -2.94772375348736    0.16733968963767
H        -7.15432738064216    1.05006585002622   -0.84011574933843
H        -7.35511651422577    1.02857850889731    0.93956129392273
H        -8.53807002362485    0.20367978231886   -0.10541575672414
H        -5.05309845610606    1.32681074512650    0.29986384143805
H        -2.64103763533502    1.01538948198826    0.52968442296143
H         0.51819452570015   -3.79166875973220   -1.14670971431881
H         3.66339633106482   -6.69824364994706    0.00046800799744
H         5.45122838303194   -6.95655701638985   -1.67130752292272
Cl       -0.87384618842414   -1.37389935172047   -1.84918465896129
