78
 energy: -114.400206455883 gnorm: 0.000190635140 xtb: 6.4.1 (afa7bdf)
Ir       -0.02711710594523   -0.31424947119145    1.52457451386595
C        -1.68546648778640    1.69949246952592    3.75370331448763
C        -0.40704727202580    1.15406912187869    3.21527791716584
C         0.18632600148847   -0.06304059288550    3.72216646797771
C        -0.36109059058887   -0.88097951825672    4.84169238608066
C         1.51685143552639   -0.16613246803548    3.19238160295219
C         2.56180251163160   -1.10970934605050    3.67538651233180
C         1.69052414442170    0.89270693017030    2.25646872259437
C         2.95735298916407    1.23685316948679    1.54999819916518
C         0.49555866737133    1.73137971304705    2.28203538325702
C         0.45015132537955    3.09415831026531    1.64519496102398
C        -0.77310406088087    3.35731722852533    0.76063215466309
C        -0.64950025876387    4.73090500857038    0.10652053134879
C        -0.52669171634167    5.82129684555880    1.16841299198211
C         0.67414835766767    5.55587209369096    2.07269861402432
C         0.56303485443750    4.18141544844766    2.72648021286775
H        -2.45120472385239    0.92834013191137    3.80845867119208
H        -2.05886144610437    2.52873912188059    3.16432423506728
H        -1.50603156214715    2.05463217499854    4.76936731121269
H         0.03536240842144   -1.89211602260456    4.81427583760321
H        -0.06939709595878   -0.42968437061691    5.79063878285642
H        -1.44590574880388   -0.92434474191819    4.80775322202116
H         2.13499390308133   -2.06432306597160    3.97010192365554
H         3.32029670223178   -1.28943032317509    2.91963415343049
H         3.04541649393518   -0.67010490631466    4.54857830260718
H         3.66104650778535    0.41094461549674    1.58903284929318
H         2.76550305935418    1.48082319350640    0.50705983511423
H         3.41428887344576    2.10504523992356    2.02519136988082
H         1.32724336463627    3.17957247684153    0.99689379329477
H        -1.69009672470980    3.34004836881976    1.34999622947036
H        -0.83468509218976    2.58365718892694   -0.00669063726973
H        -1.52322279979799    4.92039904628480   -0.52020355790263
H         0.23120500171739    4.75104399052262   -0.53928290010164
H        -1.43783450903685    5.84790916018946    1.77117157476001
H        -0.42013018879345    6.79580583143865    0.68789820089915
H         0.73471423162600    6.32493539516744    2.84549579847585
H         1.59053275889919    5.60735207650828    1.48008989793972
H        -0.31658099960753    4.15927482535410    3.36998083763272
H         1.44030076507875    3.99374692858399    3.34856319472901
C         3.32494120290233  -10.19033445495664    5.88215558224616
O         2.54370392774669   -9.02842396318318    6.06491310711439
C         2.57244295626954   -8.06093355870256    5.11125601139885
C         1.80104666311271   -6.92503381219411    5.37250142223202
C         1.76222530676681   -5.88492419432077    4.47274944407788
C         2.49620448164381   -5.93212960923644    3.28571297428958
C         2.47363549641754   -4.80224383258621    2.34680584500582
C         3.63371115300989   -4.38878313023149    1.68947080900160
C         3.61670028524450   -3.29222856030408    0.84432256961892
C         2.45295574973733   -2.57045530745810    0.65020895582010
C         1.28353106205506   -2.98990800546549    1.28187883080946
N         0.09705114251064   -2.26707563752908    1.08784515550287
C        -0.96661123302398   -2.86053925781263    0.64625929912226
C        -2.13372490285725   -2.04721069771215    0.49284248955719
C        -3.33569103491308   -2.47168728388190   -0.08070681222050
C        -4.37451861184742   -1.57533935995618   -0.21678770920576
C        -4.17416048620994   -0.26720767069345    0.22362114810509
Br       -5.55758654105673    1.03035772090925    0.07627373789829
C        -2.95958494557220    0.09551683481138    0.78855114003272
N        -1.96596006480637   -0.77194683908101    0.92962509103831
C         1.29159305378319   -4.10416077896299    2.11557416218324
C         3.26028221305195   -7.06680741837537    3.03251660478572
C         3.29889507759637   -8.12256990266672    3.92526846767792
H         3.01082375880144  -10.74772126507261    4.99468427564716
H         4.38895084205511   -9.94699111517855    5.80666795355397
H         3.15534870846345  -10.79826647038885    6.76896294428283
H         1.24569510683327   -6.88578157563710    6.29605795389747
H         1.17521125825177   -5.01066095540523    4.70839119213098
H         4.55808026540836   -4.91689686617686    1.86231527967593
H         4.52225028296258   -2.98933055731591    0.34146671258743
H         2.42223135729507   -1.71067982156710   -0.00042495591830
H        -0.96288304040903   -3.90855158557683    0.37170166633248
H        -3.43512369151614   -3.48987661018104   -0.42112975293832
H        -5.31459937342842   -1.86942323450874   -0.65574797155591
H        -2.79126454265439    1.10621251712773    1.12836795401037
H         0.37600286427433   -4.41362120539891    2.59613540319601
H         3.81980549550632   -7.14395451667077    2.11231233133844
H         3.89826171825640   -8.98688770115819    3.68759019756366
Cl        0.32073606425457    0.13474440430397   -0.79558892156923
