69
 energy: -114.994562960988 gnorm: 0.000661668926 xtb: 6.4.1 (afa7bdf)
Ir       -0.55058498761018   -0.66617055788010    1.45725159350182
C        -2.01054792411384    1.27885733810110    3.88073730226178
C        -0.80397841015185    0.61335410409765    3.31715068649469
C        -0.41614202201848   -0.72495759137235    3.68913786777578
C        -1.12559132164513   -1.57375591598756    4.68472265754136
C         0.90215719720790   -0.97120807989139    3.16811798281603
C         1.76459557606778   -2.12630918875727    3.53728563460886
C         1.28278167530758    0.16359378503551    2.39382154825757
C         2.62222234363463    0.40264288927858    1.78855757834711
C         0.21660066497527    1.15776455632315    2.48281547764512
C         0.38823877120486    2.57452376816330    2.00724765695036
C        -0.74420833934680    3.10498276226595    1.12028507573607
C        -0.39244901254645    4.50507325845913    0.62390956138882
C        -0.16888272058485    5.44962664210395    1.80248853452052
C         0.93328456096735    4.91708741670110    2.71459911351765
C         0.59581378258118    3.51276854100316    3.20853580897935
H        -2.87922360284729    0.62511832747396    3.83753913387903
H        -2.24202936074012    2.21147719936840    3.37927666416235
H        -1.81898715198793    1.49620001810802    4.93264915530421
H        -0.86048618691475   -2.62051010367080    4.57099571854467
H        -0.83350934165065   -1.25895944899720    5.68761796199415
H        -2.20346179394333   -1.46707180903479    4.60247530106848
H         1.18153189703537   -3.03239422903661    3.67707886812712
H         2.52901974405449   -2.31166343519533    2.78889255974338
H         2.26160903396518   -1.89500075064873    4.48035815231156
H         3.20946091711858   -0.50979220004308    1.76347443591844
H         2.52838801536509    0.78786747235369    0.77534673334063
H         3.15803174985589    1.14157424080124    2.38429612470762
H         1.29867611957313    2.60598105916054    1.40152980176829
H        -1.68075970874141    3.16491933083053    1.67534635730368
H        -0.88242223108987    2.43462415780953    0.27055362934771
H        -1.19817426056319    4.88417119960437   -0.00767783560992
H         0.51290295530457    4.46208430094469    0.01464826258349
H        -1.09688499923044    5.54955613744845    2.37045869161579
H         0.10131214506124    6.44137119125473    1.43513580765709
H         1.06137972832414    5.58304016055359    3.57008305695764
H         1.87708401350560    4.89659461823757    2.16531666140755
H        -0.31062165785626    3.55197718912278    3.81236281359850
H         1.40505292675476    3.13680586317960    3.83651102130027
O         4.61474423878062   -5.85579175047284    0.54895060639807
N         3.50586373169906   -6.23582919330703    0.87421819605915
O         3.25035395231095   -7.36891689015772    1.23474728133053
C         2.42858850316136   -5.28491564873411    0.82976206126435
C         1.15995184823387   -5.66902122481646    1.25481240517128
C         0.12314151514978   -4.76022513651654    1.20076420243884
C         0.35833849440802   -3.46405761177833    0.73349100070155
N        -0.68662156574125   -2.53343480093006    0.67711426341375
C        -1.78085472992661   -2.83247571511916    0.04303847789842
C        -2.80093019075970   -1.83240223759362    0.01103136605910
C        -4.00352581078808   -1.95020903105705   -0.69325418918650
C        -4.89584994107472   -0.89888123690918   -0.68472384149091
C        -4.54988091122288    0.25193256280620    0.03063394021063
C        -5.47447951148129    1.44202323785490    0.04763633654725
F        -5.29826296674597    2.22584424211940   -1.03049079426177
F        -5.28177747447257    2.22209453182495    1.12066215582130
F        -6.76434249201974    1.08278732581168    0.05242659888042
C        -3.34046953006875    0.30936874994453    0.70419559073764
N        -2.48668691956134   -0.70841310947570    0.70916467038832
C         1.63728255492238   -3.08334106180170    0.31933607223611
C         2.67049715274916   -3.99668054028652    0.35864380385624
H         1.00529217403233   -6.67421175753162    1.61547386620490
H        -0.86303669889223   -5.04005337365209    1.53654186847331
H        -1.89785350359366   -3.77382857901887   -0.48066513630233
H        -4.21700822441257   -2.85347856697208   -1.24172904159669
H        -5.83598324599490   -0.95481310353394   -1.21165135093941
H        -3.05630365848653    1.19465123819161    1.25383063766929
H         1.79136016808168   -2.08527273719654   -0.06190577080091
H         3.66343573241204   -3.73431429922832    0.02720673421201
Cl        0.04618952704791    0.02891950000685   -0.74186216526729
