75
 energy: -114.473484820017 gnorm: 0.000344783189 xtb: 6.4.1 (afa7bdf)
Ir       -0.39259287431345   -0.61205778739118    1.73988316257349
C        -1.68252598730539    1.13836494384419    4.47436586968390
C        -0.53228921137792    0.51675898631121    3.76551157614483
C        -0.12760817867786   -0.85591966118950    3.93622808389205
C         1.15613005875109   -1.01833557646519    3.31339076007012
C         2.09264596178703   -2.15454447166369    3.53472166984864
C         1.46573098758134    0.19804018551314    2.62843543706083
C         0.41807852346676    1.16139864422858    2.92994476507786
C         0.51405420319495    2.60288800813611    2.66015631065224
C         0.51074440819986    3.50176140820553    3.72554264775231
C         0.66617277482859    4.85473230973840    3.50012083777047
C         0.82710880542935    5.35169926227270    2.20798270981111
C         1.00924041070312    6.79142538929063    1.97050341731741
C         1.93186233820958    7.24179652033984    1.02791978176091
C         2.11177801832198    8.59497527286240    0.80789218364542
C         1.36907385884135    9.52162599288251    1.52139094449270
C         0.44643173354088    9.08548966297674    2.45841354071132
C         0.26963232629888    7.73262156278569    2.68405544643743
C         0.82064512449500    4.44903471286353    1.14591139597123
C         0.66785879968409    3.09550581608362    1.36672696677482
C         2.77641609640855    0.52084343357418    1.99907732371572
C        -0.76626728614138   -1.82053221881831    4.87816154410039
H        -1.46938855331848    1.14416419455347    5.54413314895068
H        -2.59701522005396    0.56724146865122    4.32839668725667
H        -1.84319125284341    2.15906522329854    4.14179213245244
H         2.64388952647977   -1.96517904030275    4.45666777543082
H         2.80849020879561   -2.24208366465643    2.72319838445067
H         1.56525705301684   -3.09792712099844    3.64486624475872
H         0.41768830822742    3.13597875813137    4.73658179182731
H         0.68840798627578    5.53471276164259    4.33859880584226
H         2.52669907250258    6.52672007923671    0.47831756324518
H         2.83533973148518    8.92928762266345    0.07811165877532
H         1.50886179780621   10.57858285061080    1.34766440990389
H        -0.13811688824008    9.80432797155970    3.01449359246690
H        -0.46315637240638    7.40179911358210    3.40551503352768
H         0.91899099248618    4.81485112768597    0.13473319785679
H         0.63954309128653    2.41446229722439    0.52995212445259
H         3.11875193031786   -0.29115261109867    1.36204372611836
H         2.70676863234609    1.42940777089208    1.40788668218625
H         3.51861840937417    0.67277883642272    2.78395197364699
H        -1.84460014539099   -1.68970269285342    4.90077377137560
H        -0.53746812690438   -2.84662447766525    4.60364990328271
H        -0.38368321805126   -1.64573263006229    5.88435733824086
C        -6.65726605301126    1.18083113795075   -0.14678693027255
O        -5.32335375672880    1.25108973429335    0.33758255731442
C        -4.59370682732969    0.14404787489050    0.41809271250700
C        -4.99220918208987   -1.14712888866851    0.05983422841876
C        -4.08546163785638   -2.18029663588436    0.17724475973577
C        -2.80797112342091   -1.93173480688557    0.67667965599874
C        -1.75859463765116   -2.90102801796134    0.69873545579031
N        -0.57613185352670   -2.50444307234360    1.04471656755344
C         0.50227064331477   -3.39467265969453    0.98865136739067
C         0.40451160837978   -4.68620870402923    1.50961463814385
C         1.48370737884062   -5.54211141353533    1.43015153470910
C         2.67192346422932   -5.14980041947074    0.81647555609368
C         3.83530749078090   -6.08441128779552    0.75153125859703
C         2.75323978628858   -3.86239860678005    0.29183898417386
C         1.69155374503557   -2.98520830468867    0.38632591576492
N        -2.43257661003699   -0.68928704441390    1.08508709800647
C        -3.28468393271735    0.30555683798038    0.92291381641872
Br       -2.75799450235532    2.06297201317326    1.34410535635934
H        -7.26970788854052    0.53546243375342    0.48627094065725
H        -7.03076972175524    2.20128498040794   -0.10028165967287
H        -6.68003186610457    0.82826905187579   -1.18017162966106
H        -5.98107342060956   -1.33241740551153   -0.32609739431269
H        -4.35125379582635   -3.17922259191136   -0.12733475619502
H        -1.93870180004780   -3.91077440030856    0.34801314308842
H        -0.50479147024774   -4.99894431532731    2.00026785895961
H         1.40595888226290   -6.53407124333697    1.84883064534061
H         4.34661643054227   -6.10480935236569    1.71411920616181
H         4.54931107458516   -5.76986292240559   -0.00480069218269
H         3.50624929586723   -7.09736993912955    0.53124695600090
H         3.66165199807349   -3.54377496993013   -0.19681371167389
H         1.74730307304931   -1.99374746823170   -0.03637908236557
Cl       -0.02497964650899    0.08717917138260   -0.52173267815085
