70
 energy: -122.234396471867 gnorm: 0.000448520237 xtb: 6.4.1 (afa7bdf)
Ir       -0.49234137113498   -0.94442364396028    1.35868414887178
C        -1.84638946700314    0.89598255954210    3.93320824404373
C        -0.65932467483337    0.24065499395745    3.32077955483102
C        -0.25793497714660   -1.11614438522612    3.57325072179577
C        -0.92588665319929   -2.03611898625323    4.53612483015036
C         1.03947627357873   -1.31277885221006    2.98032339845447
C         1.94904345209092   -2.46097917525652    3.24098917136732
C         1.38158312554000   -0.13338192723312    2.26017297642787
C         2.71016090643257    0.15024790720668    1.65260185327948
C         0.31951614951081    0.84097094629362    2.47433179418850
C         0.43962438675954    2.27468407591700    2.15867366219814
C         0.38711607482423    3.20170363284568    3.19848352642314
C         0.56097468226639    4.54211616311329    2.91102872991884
F         0.51568996573777    5.43152200295408    3.92357540548431
C         0.78093201256019    5.00749921122204    1.62680047286099
C         0.82131439890246    4.06245606449018    0.61643716950363
F         1.02843726686990    4.47998598749387   -0.64829780530061
C         0.65705721472746    2.71076100015926    0.85330156874737
H        -2.02513620084051    1.87705215447142    3.50425034132288
H        -1.67105123687230    1.00588187972784    5.00390259782217
H        -2.74004830531587    0.28797631939358    3.81111019121359
H        -0.67790481651424   -3.07242070956629    4.32658362604461
H        -0.58452198299955   -1.80365450978757    5.54551268047994
H        -2.00497459466967   -1.91369404981424    4.50978545122990
H         2.52939401201663   -2.23962650763437    4.13729062077045
H         1.39680854880613   -3.37996347213988    3.41374779020826
H         2.64081339268417   -2.61055593174523    2.41748859819844
H         3.06446537824444   -0.69782267869255    1.07242249582776
H         2.66754065668998    1.02338574658472    1.00930619605207
H         3.42982351669798    0.34084280700860    2.44946234955254
H         0.24230728333461    2.89183837795206    4.22008719759875
H         0.91554614016312    6.05667752032769    1.42327545298309
H         0.67523538920058    2.01450467573138    0.02846414613521
C         5.02766246260585   -6.09789319902055    1.67477494284517
S         3.87933490973696   -6.65431084631802    0.38947475170895
O         3.39515617087664   -7.97109132598799    0.72887083682659
O         4.50288425880850   -6.48692944110145   -0.90144370747854
C         2.49825398423663   -5.49974475933432    0.50340686460508
C         1.34662091213810   -5.88285787608923    1.16578425772800
C         0.27758951483586   -5.00764045206581    1.24060093639516
C         0.38141860042917   -3.74265747098886    0.65828515877134
N        -0.69232617829489   -2.84070084683626    0.71161717957753
C        -1.88254448043337   -3.22916890776870    0.37685288490770
C        -2.91463314447174   -2.24010568687040    0.38723972566893
C        -4.24627118999832   -2.51550712376550    0.01824098991657
C        -5.15553884492622   -1.49667724405439   -0.00282908042043
C        -4.72532369719424   -0.17952504053011    0.27565173116473
C        -5.59878914130662    0.92041038188364    0.20044515948264
C        -5.12996363055480    2.19102215908974    0.42143560347719
Cl       -6.19470424058959    3.54857900709253    0.31657686710718
C        -3.77073012326976    2.41047795984244    0.71345878035469
C        -2.90965184956262    1.35433979063412    0.81850321393722
C        -3.35666238451042    0.03186865735006    0.62273708756969
N        -2.49972919080468   -1.01012895500794    0.73496114164117
C         1.55527006919379   -3.35960362742092    0.00650732221495
C         2.61053129775803   -4.24950231799957   -0.07935351575999
H         5.86194706687194   -6.78886935932994    1.68615967209309
H         4.50586824120409   -6.11921386180116    2.62249832274348
H         5.36545121898314   -5.10218939560847    1.41915430930387
H         1.30028909363085   -6.87007997041600    1.59703506116828
H        -0.62436362089080   -5.29131968903731    1.76054325023990
H        -2.07663586807028   -4.23833332565332    0.03263651607708
H        -4.52199782706757   -3.52668952594585   -0.23227415280068
H        -6.19010316178040   -1.67403809028225   -0.25188431498425
H        -6.63441046238626    0.75264763116588   -0.04830463094714
H        -3.41780957874170    3.42007002301858    0.84710390377392
H        -1.86148123373118    1.52678415965591    1.00285456732720
H         1.60606500814200   -2.38530528768477   -0.45585523915031
H         3.51329059820879   -3.99618105167181   -0.61149921784857
Cl       -0.02478550617309   -0.29332028802373   -0.88453933790237
