72
 energy: -110.967462317463 gnorm: 0.000460883784 xtb: 6.4.1 (afa7bdf)
Ir       -0.59113550988558   -0.98945807255879    1.39408638916335
C        -1.98454223571551    0.87323868869741    3.91459850590694
C        -0.79921123080495    0.20028067383899    3.31011292313032
C        -0.45213614917368   -1.16709788565134    3.61181410104445
C        -1.19009987203858   -2.04725043292342    4.56157870666690
C         0.86223903612651   -1.42010473603419    3.08975359563284
C         1.69090324495773   -2.61522424749537    3.40743397349833
C         1.27136621484459   -0.26671897937100    2.36329345830681
C         2.61387537847574   -0.04071586071521    1.75520278263426
C         0.23757613642307    0.75498948713379    2.50471671853546
C         0.45615172259552    2.18912081126724    2.10284549160960
C        -0.66695759357993    2.80516228536723    1.26132896514933
C        -0.27273139423197    4.21747853593554    0.83623706828048
C        -0.00144376159609    5.08764773859438    2.06130145038624
C         1.09496037072652    4.46995588636481    2.92518179825832
C         0.71645910636428    3.05293792782055    3.34787027570494
H        -2.87710714947807    0.25881412370330    3.81479134220249
H        -2.16785480997282    1.84862093811526    3.47936279291630
H        -1.79555475115773    1.00438125172680    4.98082696659471
H        -0.98281291286798   -3.09593443472873    4.36726809147342
H        -0.87120536529674   -1.82277203848103    5.58016896455472
H        -2.26246022461970   -1.88531760383462    4.49971075946729
H         1.08220230407363   -3.51173742400587    3.48844508473758
H         2.45718594179449   -2.78006216542267    2.65630687405514
H         2.18059577881238   -2.45050231400546    4.36794584437186
H         3.16021380189414   -0.97359979518791    1.65521975749993
H         2.52054582836486    0.41171525256641    0.77014150640171
H         3.19054499850311    0.63386108296496    2.38791414353215
H         1.35844500388276    2.21768265917291    1.48533877085779
H        -1.59203372308624    2.86597581520508    1.83525603094128
H        -0.83500537275432    2.18196184958391    0.38140933630657
H        -1.06997017738740    4.66018045059499    0.23593304073179
H         0.62353646681846    4.17523078877917    0.21395987551643
H        -0.91656107588843    5.18547471645295    2.65007178884045
H         0.29698689900199    6.08913160688802    1.74578551504607
H         1.25967009009324    5.08456287373434    3.81242370470134
H         2.02915157919011    4.44608542599591    2.35958450746272
H        -0.17704278912905    3.08850313148886    3.97130667960237
H         1.52222685309834    2.61461655628972    3.93919837744487
C         4.93363526286451   -4.63746261000959   -0.30319530685085
O         3.81326496827897   -3.77347133513243   -0.22018044553171
C         2.62673387106250   -4.27322676112995    0.17763922277411
C         2.40620195993561   -5.58859170021818    0.59001006483395
C         1.14268606255487   -5.98711825045007    0.99304227132887
C         0.09611435832805   -5.09019744620696    0.97158991874879
F        -1.13161011860054   -5.48444727568831    1.38733882156182
C         0.28819812750455   -3.76465237410126    0.56752477584445
N        -0.76020704997420   -2.83626678975975    0.56204613574795
C        -1.88900843764075   -3.12458850799848   -0.00267923418559
C        -2.89807192055455   -2.11274001147664    0.02424474217157
C        -4.13566487741977   -2.21683965453245   -0.62004173045534
C        -4.98949710937580   -1.14050186812306   -0.59617854139770
Br       -6.69092569304655   -1.19963659323649   -1.43613707467768
C        -4.60437441719083    0.05240630894089    0.05883244408302
O        -5.45447235579282    1.06772660857491    0.01967589813156
C        -5.10375453855513    2.31220567001619    0.60944646558866
C        -3.36386541231537    0.05366665681515    0.70176615951246
N        -2.54246725398832   -0.99101622728948    0.69180594086546
C         1.56106495646692   -3.36970464177134    0.18204241726663
H         5.74529554079341   -4.02065315632549   -0.68345106570747
H         4.74771865670994   -5.46163546046869   -0.99626503633039
H         5.20400948564904   -5.03133744354883    0.67993266235923
H         3.20627429959879   -6.30915971371230    0.60402914274387
H         0.96245033232495   -6.99826566868574    1.32064544470494
H        -2.05739805106950   -4.06313314535224   -0.51743742284338
H        -4.40340122349824   -3.12512161294458   -1.13488434479608
H        -4.99890043647060    2.21341592689674    1.69141465005644
H        -4.18474977587921    2.70528649167163    0.17037188815210
H        -5.93367692563137    2.97788533172274    0.38334516888881
H        -3.01855384527678    0.92786512874689    1.23062489013646
H         1.72390262645198   -2.35783672359330   -0.15363739242492
Cl       -0.06377972361272   -0.22081371948601   -0.80455348947480
