76
 energy: -127.261770530856 gnorm: 0.000679625096 xtb: 6.4.1 (afa7bdf)
Ir       -0.39641960037332   -0.77425466702944    1.57668855503747
C        -1.65452468289316    0.81204114546922    4.35800064223866
C        -0.49807882745765    0.21611706880895    3.63860332378144
C        -0.09369899321785   -1.15255286939606    3.76091880709448
C         1.16809888124252   -1.30499971903665    3.08459597666837
C         2.09709271303089   -2.46046793979914    3.21926394829377
C         1.51135143968597   -0.04459075720648    2.49898610754767
C         0.46834403253539    0.90008639094595    2.82635050712862
C         0.57908613975885    2.35208344781040    2.62759020836749
C         0.49552511358836    3.21177939725660    3.72110590477118
C         0.64256087702054    4.57417613069507    3.55193940687518
C         0.87584605653217    5.11975859497675    2.29055478630298
C         1.03522379729917    6.57111471067470    2.11610547610732
C         2.00416488175912    7.07951919149783    1.25297892950748
C         2.16263862501911    8.44452120170484    1.09895912637215
C         1.35139418254771    9.32389173917558    1.79772631979233
C         0.38043357036749    8.82934788232101    2.65345379980094
C         0.22512590480823    7.46480848462225    2.81437526368821
C         0.95956637635819    4.25453164309716    1.19990409035368
C         0.81605491592156    2.89178176697586    1.36373752076089
C         2.82516921453758    0.27880739805026    1.88384654634723
C        -0.73064815356343   -2.15967252589976    4.65494465974892
H        -1.43832178478307    0.80832925715565    5.42721305441856
H        -2.55808231348151    0.22544687744110    4.20747983792963
H        -1.83408410471178    1.83272348423674    4.03715982626609
H         2.70423191928113   -2.30771466553085    4.11270610710623
H         2.76665496369470   -2.53092300503797    2.36730978838915
H         1.56422470357574   -3.39994402193636    3.33331607361913
H         0.34769517679245    2.81065660729338    4.71129711074277
H         0.59992027079314    5.22422231373139    4.41269502491376
H         2.65294275635423    6.40243345925094    0.71671019877204
H         2.92349595607654    8.82549439572252    0.43310129463484
H         1.47540662509932   10.38989927764974    1.67534830615814
H        -0.25796407136301    9.51110626127705    3.19659915429923
H        -0.54465404904825    7.08826125838203    3.47204347787806
H         1.12223739763374    4.65808049259293    0.21138279550733
H         0.85530894824101    2.23875234663784    0.50504086306307
H         3.05867989171758   -0.39978261161353    1.06652934312878
H         2.83522208609320    1.29699771940813    1.50678696581687
H         3.60305131241124    0.17434286357201    2.64099234140552
H        -1.80937237416948   -2.03385400475955    4.68314394119697
H        -0.49443438757653   -3.17182055708772    4.33868888974151
H        -0.34991472280204   -2.02518087202034    5.66808009087529
C        -2.78624949076265    3.44968808253197    0.32461503747126
S        -2.23525437723834    2.01501127734586    1.28663641827998
C        -3.05761088325710    0.63549503225825    0.63201737178512
N        -2.39076256733866   -0.52061102725418    0.77812399345695
C        -2.88819068401157   -1.65487032133843    0.23192858481851
C        -2.02555185703166   -2.79025964100272    0.33334268330755
N        -0.85427632288407   -2.61162429450201    0.85578184069603
C         0.04003415209560   -3.69458030132613    0.89558642143103
C        -0.32691638120413   -4.89437165829576    1.50399802498753
C         0.55600166429603   -5.95813841709890    1.51698542655666
C         1.79643107264409   -5.82843992219250    0.90305605366767
C         2.76676509106734   -6.97641993173334    0.92273187812989
F         3.51706936923688   -7.04282565606171   -0.18966116049707
F         3.63643068194026   -6.88289529565587    1.95257422999520
F         2.16673637772704   -8.17038234313493    1.05191213362858
C         2.16744074966359   -4.63316261575955    0.29519686439981
C         1.29302194487042   -3.56372620167568    0.29873763650591
C        -4.10579217935447   -1.68617398983259   -0.44937802854812
C        -4.83965969062031   -0.52266613638816   -0.54026476167932
C        -4.32565742480122    0.65520524398604    0.01043906334146
C        -5.16073920591879    1.79365171613979   -0.01420879744719
N        -5.91246778906824    2.65993784673007   -0.03244276780079
H        -1.97278123091151    4.16437754856387    0.42294904931695
H        -2.90687870360019    3.17041882329718   -0.71661282180767
H        -3.70097710453609    3.86833620358369    0.73002599452088
H        -2.32325345882959   -3.74593016862097   -0.08297801740957
H        -1.29183500481417   -4.98623447747406    1.97776022220828
H         0.28019493070605   -6.88841604534376    1.98831651911850
H         3.13124982332179   -4.54767651594919   -0.18187140566097
H         1.55218642070985   -2.63337313498343   -0.18264178665105
H        -4.45584628341901   -2.60514356965973   -0.88855934986504
H        -5.80501892023342   -0.50407287998912   -1.02255592538328
Cl        0.24176861719594   -0.18238082104970   -0.62837701736681
