76
 energy: -114.954048902176 gnorm: 0.000508783356 xtb: 6.4.1 (afa7bdf)
Ir        0.40134912788163   -0.40840301353222    1.74304848805021
C        -1.21085318904976    0.98996992680638    4.36691094995361
C         0.07306318360985    0.56729868478013    3.73831175800106
C         0.71909899264053   -0.68715662129701    3.96700919975859
C         1.99428803575854   -0.66259692477693    3.29687574215867
C         3.08009176196865   -1.67954720683228    3.42869670187613
C         2.15771896641663    0.63124383512092    2.71033121788932
C         0.94905028494644    1.37926713615150    2.93335503300104
C         0.76969149970399    2.80288023365468    2.61767216396694
C         0.46029793793352    3.71327665696281    3.62707470483865
C         0.33310870732869    5.05774079440780    3.33987922352785
C         0.50863723753949    5.53317969365162    2.04104488835152
C         0.38978421661915    6.96859145559342    1.74432205645262
C         1.28415318342101    7.58656387897931    0.87232091541548
C         1.18309141326336    8.93878484164162    0.60164481207613
C         0.18371079949678    9.69496044111428    1.19234421546377
C        -0.71385506312311    9.08991015326666    2.05715931623034
C        -0.61033255449666    7.73917144255505    2.33430505985094
C         0.81232653407907    4.61759156231189    1.03417765599023
C         0.94287722827084    3.27272008537633    1.31619256380449
C         3.41104386883806    1.15523958972456    2.10510536022339
C         0.24041890140654   -1.70619710059135    4.94410997400152
H        -1.03459900392084    1.22671172703578    5.41723145709767
H        -1.94650207394264    0.18988268653053    4.33013031637580
H        -1.61599320092447    1.87300891193090    3.88057605370720
H         3.59461203729614   -1.54304659949795    4.38033622591635
H         3.80360222040220   -1.56800491706863    2.62634057706095
H         2.68293858496410   -2.69048527418323    3.38939149495096
H         0.35218305922336    3.37078392400151    4.64439440909428
H         0.12133052960676    5.75459680675303    4.13691887111476
H         2.07776025744464    7.00859595649511    0.42136413866035
H         1.88828946588465    9.40607364761102   -0.07050575453874
H         0.10531777608644   10.75117339575585    0.98009711235361
H        -1.49703072598769    9.67502718055554    2.51717219981281
H        -1.32295404878503    7.27440117493530    2.99990238509065
H         0.93231032992939    4.96218726389854    0.01810894873006
H         1.16370168178083    2.57258260132332    0.52394952154818
H         3.61911894297131    0.67003159991558    1.15224311288329
H         3.33195287676942    2.22526006847503    1.93092381000672
H         4.24857620365671    0.95844232710998    2.77258699946652
H        -0.77139543693197   -2.03652257050812    4.71930986011279
H         0.90568467501379   -2.56277663272005    4.97033499614156
H         0.22523346011850   -1.25651743802309    5.93761131230015
C         3.74026811689464   -7.26083182785530   -0.04126420247727
O         3.09484134984273   -6.74794201548555    1.10736823406468
C         2.33697302872642   -5.63862392486377    0.98967629567045
C         2.15121208539501   -4.90944943491701   -0.17620701047314
C         1.32571511020369   -3.79861044770537   -0.19470445650590
C         0.70752855160472   -3.37025645361255    0.97385520572032
N        -0.11787189517822   -2.23965556265786    0.94786005559081
C        -1.07976134549339   -2.19724131411379    0.07864166226445
C        -1.81448298943066   -0.97368160438881   -0.04027520471675
C        -2.89557836084623   -0.78473046393536   -0.90365708461193
C        -3.50924667597518    0.45153663536478   -0.94844372239968
C        -3.02019469506635    1.46987093709049   -0.13532418886061
C        -1.94051483278572    1.21611782890364    0.69121201302014
N        -1.35179884397744    0.02397082836608    0.75277110835274
C         0.90065334498848   -4.07990468948144    2.16502903385257
C         1.68392600799793   -5.21868782084457    2.18100750624363
O         1.89475620400187   -6.00951879751969    3.25843876500836
C         1.22765162638013   -5.71248511371373    4.46837210464220
H         4.26788544048252   -8.15048971354989    0.29651576937205
H         3.01649207758338   -7.53721250492074   -0.81315856911623
H         4.45926455790227   -6.54406508043447   -0.44756811453003
H         2.64176337457962   -5.20613332052770   -1.08825177830116
H         1.20304804677415   -3.23080109567002   -1.10309061686858
H        -1.31552921049383   -3.05082090119609   -0.54657528546132
H        -3.22636203445804   -1.60119357584613   -1.52467333210353
H        -4.34614227265541    0.62659667531009   -1.60588048129786
H        -3.46820485392936    2.44988350701788   -0.14191633398716
H        -1.53087074688874    1.99661780671330    1.31603596955743
H         0.37579601341924   -3.75331805783649    3.04597800751616
H         1.58517632862456   -4.77187766885894    4.89659690602019
H         0.14435365425567   -5.67345966501797    4.32871434605778
H         1.47661490246545   -6.52868051864987    5.14323881997021
Cl        1.40271924933801   -0.10435203039097   -0.39517847017379
