73
 energy: -117.194922808538 gnorm: 0.000296478373 xtb: 6.4.1 (afa7bdf)
Ir       -0.63817097563671   -1.09996061327119    0.99436875271175
C        -2.49323098595470    0.40463446927697    3.49508550589100
C        -1.18991391228125   -0.13588104065066    3.02239559481504
C        -0.76165292689352   -1.49513263780282    3.19967394111633
C        -1.52897755942399   -2.53452931572558    3.94416898845379
C         0.62582962030524   -1.57507141826581    2.82307722573023
C         1.56517083063002   -2.67584918422661    3.17771697706088
C         1.00904682032101   -0.31436829278944    2.28242368167824
C         2.39851585209120    0.09709341014506    1.94208501468916
C        -0.12514332790795    0.58811332770544    2.41416572993524
C        -0.02030919500768    2.05194669551528    2.29117879097506
C        -0.26803148689330    2.83743646016435    3.41618441690282
C        -0.10451749905362    4.20656009832504    3.32853078750615
F        -0.34171567694839    4.95740960982613    4.42427834543882
C         0.29388236500668    4.83731069284812    2.16339473454453
C         0.52580810495900    4.03024048271278    1.06323275013928
F         0.91048675100913    4.61027828496670   -0.09172927564979
C         0.37816505046918    2.65690962517947    1.10141120529405
H        -2.62892337234730    1.43751244525735    3.18960205280345
H        -2.51992428630060    0.35250153720176    4.58394092536563
H        -3.32685544857604   -0.18559721308533    3.12048570689767
H        -1.24399584637366   -3.53662745366883    3.63668561445633
H        -1.32379818608255   -2.43587753189419    5.01082566072080
H        -2.59740941896904   -2.41014254361457    3.79349436382293
H         2.08106534480626   -2.39325766134638    4.09687549067902
H         1.04054364973834   -3.60760179125557    3.36705992491206
H         2.32184009120362   -2.82470337333240    2.41216223468634
H         2.97983574424451   -0.74385437993088    1.57465979828862
H         2.40592047665139    0.88423334421639    1.19422170441273
H         2.88198927167406    0.47998265400922    2.84164204591126
H        -0.55694878845229    2.39623473796461    4.35596164626957
H         0.41949774865490    5.90608817852228    2.11540511580479
H         0.55016544905019    2.07521753356046    0.20859509264862
Cl       -6.28331538179497    3.40136167287043   -0.41960312535337
C        -5.18173521474307    2.07038706163396   -0.33238273963425
C        -3.91767020733865    2.26642591884092    0.25204154954670
C        -3.03799285737854    1.22504566637486    0.35604920720721
C        -3.36737283163978   -0.05648060950740   -0.12803091430130
N        -2.50041707279030   -1.09097676878583   -0.00513714320260
C        -2.77551699397982   -2.24724724389614   -0.62634357313662
C        -1.72944816584134   -3.22353520882051   -0.55202075603049
N        -0.66373566325475   -2.92012728246334    0.10559399535240
C         0.42387877076850   -3.86529184310624    0.15271512374606
C         1.68224251240495   -3.32586038073474   -0.54031221707112
C         1.53824571461065   -3.30687956660883   -2.06569889817336
C         2.83236023173414   -2.87123197178281   -2.69690056301567
C         3.74389488979687   -3.80443641736216   -3.17309538185442
C         4.94540945324590   -3.39716203548755   -3.72767809574337
C         5.25086635404566   -2.04908292335909   -3.80939629805268
C         4.34953113143313   -1.11116304647927   -3.33248629653747
C         3.14997388450514   -1.52078555537640   -2.77855546401369
C        -3.98253441331460   -2.47550941636958   -1.31511666042025
C        -4.92060096186994   -1.48439521623862   -1.35873066258059
C        -4.62592201796140   -0.23040910303256   -0.77859417201908
C        -5.52702587221501    0.84765798704227   -0.84847862400205
H        -3.64969389756846    3.24714864133055    0.60995183065339
H        -2.05606708113610    1.38993014650470    0.76753139570037
H        -1.83705516697006   -4.17595522138039   -1.06017633729687
H         0.65458537813959   -4.06190182937362    1.20034307543896
H         0.12263385762918   -4.80321009912547   -0.32328472338632
H         1.88631293199116   -2.31122469206510   -0.19512100686905
H         2.52387188793848   -3.96347939589310   -0.26762851420327
H         0.74699192744950   -2.60888157241100   -2.34240369808834
H         1.27531575561070   -4.30316675641290   -2.42506555823570
H         3.51359151885692   -4.85907438025463   -3.11732700446905
H         5.64474611067324   -4.13252632387700   -4.09936815732082
H         6.18698016337858   -1.73035836367227   -4.24508009471098
H         4.58262090238925   -0.05782954977902   -3.39680206716797
H         2.44803263683007   -0.78781701857322   -2.40988364749145
H        -4.14531510137171   -3.43147489376974   -1.78504438143430
H        -5.87136913667275   -1.63114337711660   -1.84668804301211
H        -6.48185870368237    0.70266854874538   -1.32770762755895
Cl        0.12922145039537   -0.12952571675689   -1.02723427616573
