74
 energy: -109.749974370500 gnorm: 0.000299211310 xtb: 6.4.1 (afa7bdf)
Ir       -0.80596555779737   -0.34230646612555    1.47792075047795
C        -2.24683898637659    2.02712151815435    3.62792557630834
C        -1.09702724169530    1.18506334047232    3.18557856695635
C        -0.89766669249428   -0.16024201790329    3.68763587170543
C        -1.79697705340765   -0.83520328342645    4.66755943195371
C         0.43477131640460   -0.56580960095343    3.35439385491552
C         1.14211350938623   -1.75124754207233    3.91110844711788
C         0.99494337405749    0.44155935362897    2.51385710069922
C         2.41310071984359    0.49673444713721    2.05283524284005
C         0.05789111543262    1.55664850939936    2.44998276981670
C         0.46982033797797    2.91286021131848    1.94550743300611
C        -0.48260114167283    3.58452154562490    0.95154582645682
C         0.12369763444295    4.90035754823034    0.47011481262699
C         0.38611541420131    5.83462698746558    1.64871572322918
C         1.30873979017272    5.16629304942088    2.66450282382901
C         0.71602030211777    3.84474515317346    3.14532016345064
H        -3.19238968366524    1.50523790509974    3.49710326474759
H        -2.29368777144307    2.97003414009868    3.09653173202694
H        -2.12680901966790    2.23497322283131    4.69197692947237
H        -1.64038367731091   -1.91004009975927    4.67147416115847
H        -1.58207801865897   -0.45804024985486    5.66807484784484
H        -2.84123702481577   -0.63117540795829    4.44751089993020
H         0.45259116129420   -2.56527497139797    4.11511347189096
H         1.92101339128158   -2.10674267122592    3.24259799879703
H         1.60937127612409   -1.46046332889089    4.85274121295301
H         2.87159970034933   -0.48684527150783    2.08746442860697
H         2.47838752477524    0.87460965755318    1.03516987123738
H         2.97992413256341    1.16461599974754    2.70196826752171
H         1.42307016752679    2.78841517466960    1.42374964232638
H        -1.44443636245251    3.79972593777692    1.41769445979379
H        -0.64262804960669    2.92088835226461    0.10035577789045
H        -0.55400014521351    5.37876581788064   -0.23959453240573
H         1.06185730679025    4.70178590673227   -0.05293995612213
H        -0.56111488747863    6.09009321946210    2.12986113889579
H         0.83725295867577    6.76292595217646    1.29268175502752
H         1.46421248593534    5.82881494818055    3.51849870436741
H         2.28223197513682    4.98508626790804    2.20307592275585
H        -0.22344429365668    4.03755882291472    3.66355716784097
H         1.39844157065118    3.36701551094890    3.85088485104423
C         0.84342577331787   -6.84165756445096    2.70653368956159
O         1.95441924304706   -6.19052659218153    2.11535391830655
C         1.78165733900616   -4.97502661484415    1.56598552830529
C         0.59085891080717   -4.25741190781206    1.54064533312579
C         0.53647065372187   -2.99027564520029    0.95285065906874
N        -0.66841524048553   -2.27557320311487    0.92326570940542
C        -1.76791440002219   -2.87321035691242    0.58620844950172
C        -2.95047571593014   -2.07423656418738    0.50663898279000
C        -4.19893306923217   -2.59659689016879    0.11233315200738
C        -5.26725366883185   -1.75357334463288   -0.00163634454593
C        -5.07955183157680   -0.37014928625313    0.20568161819974
C        -6.11548829487224    0.56804640784257    0.03042644865205
C        -5.87783000391095    1.90810063221379    0.17915969595182
C        -4.58806519808314    2.36370397770495    0.49626242494823
C        -3.56597633910210    1.47684503463539    0.70100790955928
C        -3.78277095116826    0.09226553258023    0.58087657514506
N        -2.76443105133371   -0.77675045699961    0.79089559404103
C         1.67103175033590   -2.42355301453616    0.38120299507443
C         2.85942143233535   -3.13338456519630    0.38389763116445
C         2.90791373525205   -4.38067200956237    0.96932137268143
F         4.07397889927227   -5.05867729915041    0.97808468747500
H         0.45325100800600   -6.26837913359626    3.55078120642617
H         0.05440004285440   -7.01942621045880    1.97203211901392
H         1.22718077291193   -7.79486473940756    3.06314407517296
H        -0.29592633766529   -4.66137470262041    2.00091391880230
H        -1.78455473241006   -3.91702728984506    0.29639178098842
H        -4.28611577786146   -3.65205131273491   -0.08600282266471
H        -6.24481298210315   -2.12166415456843   -0.27287290609718
H        -7.09567977359447    0.20791340761610   -0.24141176865259
H        -6.67413116266268    2.62145447527191    0.03525897389937
H        -4.40613649090477    3.42434576817186    0.57115253122032
H        -2.56303882966723    1.81303685666226    0.90545230409624
H         1.60208273629642   -1.45810079733170   -0.09211528492295
H         3.75225172077557   -2.72985935071695   -0.06561320335006
Cl       -0.33101472423344    0.28916232461932   -0.77178736730493
