92
 energy: -143.311419592704 gnorm: 0.000519694315 xtb: 6.4.1 (afa7bdf)
Ir       -0.61238870974364   -0.69496327601050    1.42666812583822
C        -1.79329090517972    0.95309828392616    4.15582971461657
C        -0.63801076137285    0.34120688674213    3.44267103848392
C        -0.22965557688731   -1.02384445759973    3.59378051286667
C         1.02457280607481   -1.19100708377324    2.90656837914190
C         1.93086662090929   -2.36428512709816    3.05491991266243
C         1.34318069682721    0.03914260470249    2.26533145817557
C         0.30733903808536    1.00385398143863    2.59297419521018
C         0.46145306458642    2.44856455280674    2.39734292235141
C         0.29905933374985    3.31890890103522    3.47518035772836
C         0.55511660560319    4.66670617099829    3.33354080979579
C         0.98744464245804    5.19262502940923    2.11684551565508
C         1.29806418239055    6.62248354885411    1.98917700009728
C         2.37324998452387    7.05140426485741    1.21282691101236
C         2.67941110266603    8.39554495637556    1.11072600006410
C         1.91611246883473    9.33785912923532    1.78071296499817
C         0.84261667939046    8.92463121336698    2.55235735683258
C         0.53727798173032    7.57961829505723    2.65781408522632
C         1.13926400580935    4.32153611374876    1.03944256243959
C         0.87868782266966    2.97313722861808    1.17475791697539
C         2.62333314211462    0.34976029121090    1.56745041335479
C        -0.83824561441667   -2.01549022603488    4.52700489519133
H        -1.54351715932961    1.05535678402555    5.21276204509311
H        -2.67619411528926    0.32062640917845    4.08908372895287
H        -2.02237695714317    1.93365235229326    3.75066151102705
H         2.54414056960846   -2.21640625944433    3.94528623991967
H         2.58954538149674   -2.47177864141549    2.19881475314651
H         1.37131927500404   -3.28702718868138    3.17876013729880
H         0.01927078373088    2.93508595001934    4.44312649305227
H         0.45597720442983    5.31658025116503    4.19009608323323
H         2.98636332708588    6.32495807392084    0.70051245512619
H         3.51894502423875    8.71062138611623    0.50802571012734
H         2.15474291792165   10.38825874917704    1.70005060910179
H         0.23923680750928    9.65542746175042    3.07154850735880
H        -0.31483345273480    7.27072269381762    3.24592227219276
H         1.44289017331410    4.71309404742693    0.08055689102588
H         0.98280844671218    2.31830078674498    0.32393405828090
H         2.51004229288198    0.26422330298833    0.48686527618690
H         2.92317917306127    1.37310830051156    1.78541164735558
H         3.40685889587997   -0.33154010867932    1.88819650690492
H        -1.90402521187529   -1.84296898233602    4.64669949686379
H        -0.67924298201436   -3.03180630435530    4.17542341108140
H        -0.36693408970356   -1.92093583907111    5.50593017824539
C        -2.37132791990274    8.25989616706400    0.92664585815532
O        -2.53723087866415    6.86774782397059    1.17545949940302
C        -1.86507137212097    6.02911150171073    0.38150603553841
O        -1.11054554543338    6.39768567743111   -0.49077497269597
C        -2.18799047163097    4.60633990949694    0.65528337925055
C        -3.02001546394755    4.22407046451333    1.70533399633087
C        -3.39055080508097    2.90152699192646    1.84318701721597
C        -2.90649264865083    1.93291366582275    0.96123865795888
C        -3.46244511041923    0.56839615902207    0.97167385160022
C        -4.85419566388040    0.45868202154964    0.89765182637643
C        -5.45318130897995   -0.77864502940752    0.73814244269087
C        -4.63941049891558   -1.89190792792525    0.63580310650912
C        -3.26122863975969   -1.73008090186022    0.76298719469083
C        -2.34832864377373   -2.82984143850186    0.67305156873108
N        -1.08872459885681   -2.59094836116026    0.85036432190208
C        -0.16244768790978   -3.62775272657266    0.78276127506130
C        -0.42876419953927   -4.87260165975590    1.34747698062003
C         0.51281235132028   -5.88330509661077    1.26900330500220
C         1.71908049072490   -5.68934349495611    0.60603953116127
O         2.68790241600509   -6.61170129521227    0.46472798439916
C         2.48591227544990   -7.91103367435360    0.98731123572185
C         1.99073137276428   -4.41895632458097    0.02392556276958
O         3.17965216608782   -4.31052975697690   -0.60909069855358
C         3.49732005824310   -3.08442213124209   -1.23744375482473
C         1.06190306860679   -3.40552550798272    0.13919568351641
N        -2.67932282266945   -0.51716030551517    0.95819210406120
C        -2.04074697842120    2.31190385795056   -0.06115558613894
C        -1.69289942618445    3.63938844146321   -0.21482525318469
H        -2.85967201753066    8.53196250640583   -0.01101433721471
H        -2.83844522309158    8.77300629226273    1.76242534970381
H        -1.31042719373987    8.50786668113685    0.85983377493831
H        -3.39456050910857    4.97032210202810    2.38709747053206
H        -4.06876331571338    2.61697816079439    2.63372179202899
H        -5.44558977134375    1.35905518221078    0.93586401769665
H        -6.52599848368745   -0.86584573609276    0.67380947216097
H        -5.04612097964923   -2.87620196819887    0.47144225769148
H        -2.70953548013363   -3.81818308412535    0.41427711990035
H        -1.34829374097176   -5.04139451438505    1.88532261827293
H         0.29517045065327   -6.83224949572023    1.73029114795343
H         2.36623537290977   -7.88766725633642    2.07375000300150
H         1.61938495856871   -8.39368972798745    0.52767903312012
H         3.38665662701815   -8.46653270155608    0.73434873000186
H         3.56010642011976   -2.26969713801370   -0.51092319001480
H         4.47131534833609   -3.23703108896810   -1.69734542288520
H         2.76453780344300   -2.82976775868903   -2.00764685956676
H         1.23116794862396   -2.43919081040994   -0.30555523804737
H        -1.67852830444985    1.57632513253314   -0.75987851540058
H        -1.05892851638909    3.95331499374209   -1.02909609449018
Cl       -0.00404782398627   -0.27360532711996   -0.83986234293441
