74
 energy: -113.803718764076 gnorm: 0.000738759497 xtb: 6.4.1 (afa7bdf)
Ir       -0.73117345479871   -0.92736369493660    1.25237148795857
C        -1.90605681757553    1.36849112264415    3.62012170730643
C        -0.84712203667503    0.46158878537829    3.08887035549833
C        -0.77561965270757   -0.93492123188248    3.47311948181833
C        -1.72930768010304   -1.60925685957260    4.39944743187388
C         0.50151001310132   -1.44087898806069    3.07679076205372
C         1.09198802378268   -2.73191436214047    3.52359540822900
C         1.14732225523047   -0.42630309722331    2.30366217824695
C         2.55181876619157   -0.47956765539145    1.80276524450659
C         0.33029055544987    0.78121733847567    2.36471113568786
C         0.86751194325699    2.13209179197623    1.97750463012032
C        -0.02519548741036    2.97346222431299    1.05968104607639
C         0.69147979117327    4.27097212802437    0.69398689190512
C         1.03707823574054    5.06470066497561    1.95133916032148
C         1.90662774595671    4.22927598056528    2.88684515833868
C         1.20479195215203    2.92456027560321    3.25324883869361
H        -2.89972187346264    0.96133467758166    3.44397399461697
H        -1.85466697291299    2.35902488608896    3.18451431055724
H        -1.77034437198666    1.45489701321939    4.69869222775921
H        -1.71361595686155   -2.68728312337714    4.26310130242568
H        -1.44182365990763   -1.39450187594935    5.42929197943647
H        -2.74326944910184   -1.24970741763596    4.24870927158087
H         0.33537970454245   -3.50670084649235    3.61853346298551
H         1.86978098705191   -3.07460343110486    2.84728655345325
H         1.53770941935401   -2.58006532365405    4.50737918851503
H         2.88677214807944   -1.50657518579198    1.69387686008346
H         2.63927391548302    0.01276325000956    0.83743442400152
H         3.21023524833213    0.02661073369341    2.50887849167961
H         1.80268997554704    1.96688477690670    1.43486381779985
H        -0.96313677252626    3.22649346501029    1.55440069549583
H        -0.24502847810870    2.40663987795241    0.15375118936527
H         0.05558371507811    4.86960697139878    0.03885729468784
H         1.60728912983712    4.04166060229902    0.14476007132566
H         0.11700963108844    5.34963555421680    2.46731295457025
H         1.56114065652219    5.98293317233901    1.67915024525494
H         2.12364227938807    4.79400222591484    3.79570081664738
H         2.85787164243623    4.01042139759842    2.39665196101161
H         0.29074062613722    3.14973824031375    3.80296333574435
H         1.84792509176824    2.32568481271777    3.90085325884245
C         4.87897130598725   -4.19829207190497   -0.99538740706899
O         3.70453145248394   -3.42563953511989   -0.82001019935416
C         2.64133848151577   -3.97543169637626   -0.20395646180901
C         2.60759778346573   -5.25779982729084    0.34879287395148
C         1.45764526464090   -5.71658694402670    0.96936855652651
C         0.33661463769892   -4.91667308050873    1.02345112007089
F        -0.77306439615774   -5.36735588939017    1.65677021817613
C         0.34039113829834   -3.62724246522852    0.47731874853862
N        -0.79122182737073   -2.80240898088569    0.52899470123389
C        -1.94944664905277   -3.27250475737871    0.18771893044485
C        -3.05593113987406   -2.36830371453393    0.21557028860251
C        -4.36026275764053   -2.74699411669034   -0.16417526992000
C        -5.35058732212425   -1.80756279938627   -0.17315579633243
C        -5.02835616840525   -0.46320464545316    0.12152350049282
C        -5.98164385269160    0.56831513496872    0.04755499280492
C        -5.60974319013164    1.86892913346357    0.27712202709025
Cl       -6.77538244915179    3.14183713817683    0.16753737109216
C        -4.27383747505287    2.19020246349774    0.58004416372428
C        -3.33806357582785    1.19978658909834    0.68735658991716
C        -3.68342862303814   -0.15003068882239    0.47965457306376
N        -2.74398056461670   -1.11768452176184    0.58735237405884
C         1.50460109610794   -3.16661222286431   -0.12070145819427
H         4.67789199183122   -5.09737841724525   -1.58310070876866
H         5.32142628577264   -4.47286905063403   -0.03446861640622
H         5.56669344189352   -3.55570193235957   -1.54077866680879
H         3.46742772994713   -5.90468925131312    0.30542562467618
H         1.42320495081205   -6.69991852922755    1.41021112170857
H        -2.07622036390029   -4.28809630169963   -0.16865961199718
H        -4.54971314329181   -3.77449228706481   -0.42791895317068
H        -6.36684231211663   -2.06593829731219   -0.42668773353103
H        -6.99982699603969    0.32481343374518   -0.21071440405918
H        -4.00063947163317    3.22360889299299    0.71729163898427
H        -2.30326446562957    1.43395084400224    0.87806817189284
H         1.52219676491947   -2.18231735917666   -0.56055945403361
Cl       -0.25011237003424   -0.14302312224348   -0.94039647207165
