74
 energy: -113.802109884005 gnorm: 0.000562599338 xtb: 6.4.1 (afa7bdf)
Ir       -0.74385342289995   -0.43261489047221    1.56567363820804
C        -2.23732066450617    1.89963859509483    3.72594998541122
C        -1.07480073797055    1.07344046638644    3.28824649689184
C        -0.87210232952530   -0.27634745297630    3.77873688412180
C        -1.78154127257704   -0.96926948125781    4.73560040221549
C         0.46593921956402   -0.66987470954176    3.45883036917624
C         1.17388916014598   -1.85463457768976    4.01542877439016
C         1.02946956491886    0.35017619671661    2.63266386573710
C         2.45144639870195    0.41975251967515    2.18695257864220
C         0.08596097025225    1.46136121480034    2.57201375698073
C         0.49517089310308    2.82524238262119    2.08687002349878
C        -0.46119038874000    3.51118657413949    1.10648798426586
C         0.13899355764429    4.83836213678172    0.64861624835665
C         0.39861497893187    5.75104977107234    1.84457468348567
C         1.32850167612736    5.06905581889813    2.84443459419727
C         0.74409088097382    3.73585129727303    3.30259848135575
H        -3.17888947710842    1.38354620459144    3.54976181133939
H        -2.26866428423480    2.86088521350552    3.22759888537994
H        -2.14827461100947    2.06894495224674    4.79980296296011
H        -1.61821378878432   -2.04296337909454    4.72766900316797
H        -1.58340704514412   -0.60432904183592    5.74413507798192
H        -2.82352668687424   -0.76778590986864    4.50297780543178
H         0.49197200786156   -2.68415234845560    4.17932544898357
H         1.98182777303900   -2.18265312954338    3.36794350681793
H         1.60223405708096   -1.57502478729980    4.97878726666591
H         2.91566261263564   -0.56121919990506    2.21276328751475
H         2.52303493186280    0.81143268300393    1.17501293120240
H         3.00751967567878    1.08293047342496    2.84980456961528
H         1.44696766121741    2.71038786291214    1.56038057873810
H        -1.42372081271924    3.71398604390909    1.57643338065217
H        -0.61838814788893    2.86251431771323    0.24348789838677
H        -0.54145154615400    5.32706155334110   -0.05142564355598
H         1.07757561639298    4.65390284162175    0.12124526874338
H        -0.54882766852203    5.99121043715293    2.33320854293164
H         0.84281797818523    6.68909001272353    1.50579024559606
H         1.48402365649901    5.71625178702636    3.71003714100983
H         2.30111141410220    4.90144662092644    2.37594916409793
H        -0.19322706828571    3.91375734376044    3.83018223758853
H         1.43296321528786    3.24796545719201    3.99478805154570
C         0.96562494008559   -6.88228631586716    2.83966053401867
O         2.07003509784775   -6.23606554204406    2.23091325777476
C         1.89101582350175   -5.02642431103765    1.67134423209910
C         0.69370891720611   -4.32012430427718    1.62930376011310
C         0.63484526513361   -3.05630102643373    1.03489814252729
N        -0.57646267042599   -2.35269971379172    0.98746426851011
C        -1.66203916697419   -2.95900843599004    0.61920816898780
C        -2.85198230852704   -2.17499814287106    0.52192560496405
C        -4.08239345707288   -2.70792517955411    0.08427717980531
C        -5.16047649767870   -1.88082799350834   -0.04335721567882
C        -4.99958360155371   -0.49726253984196    0.19745985528040
C        -6.04941232730752    0.42055730454304    0.01371036804265
C        -5.83298093145604    1.76247752309530    0.20086859390562
Cl       -7.11959202763732    2.89537367896477   -0.03454955029830
C        -4.56017534759838    2.24017920555239    0.56175076784554
C        -3.53288660991219    1.36301019756536    0.77060935147556
C        -3.72025652360219   -0.02435780921475    0.61586247639180
N        -2.69376816165737   -0.87923267866047    0.83409768587913
C         1.76994838900896   -2.48161969723378    0.47223788828847
C         2.96395246949091   -3.18195357165089    0.48868724865577
C         3.01748995138987   -4.42586002978654    1.08092682951195
F         4.18880688772596   -5.09383972666353    1.10389819105832
H         0.17414644813480   -7.07952267651773    2.11306743695117
H         1.35695385996280   -7.82585199139283    3.21335042795291
H         0.57671223121043   -6.29429859816637    3.67445196692424
H        -0.19481664211348   -4.73007722192106    2.08085618750807
H        -1.65833554766699   -3.99992454585735    0.31887940239163
H        -4.14776750694447   -3.76062015642581   -0.13602925505115
H        -6.12392764698492   -2.25776952911014   -0.34949335160527
H        -7.01710748802993    0.05716870867564   -0.29270141735250
H        -4.40727957935152    3.30230454649185    0.66173570779548
H        -2.54249332733276    1.71691221155830    1.00585724052261
H         1.69728643559508   -1.51839073832056   -0.00512536904786
H         3.85753121216923   -2.77325351138251    0.04543552184712
Cl       -0.24645850591055    0.24749274047531   -0.65955332769100
