85
 energy: -131.784806500502 gnorm: 0.000557802068 xtb: 6.4.1 (afa7bdf)
Ir       -0.73073718225499   -0.79635998375450    1.47881242112571
C        -1.88303319506454    0.90340014929161    4.21092380832158
C        -0.74099021262225    0.27293833792893    3.49061428037096
C        -0.32574110563273   -1.09167180285783    3.64692151614583
C         0.92626702608831   -1.25620975373410    2.95211303466536
C         1.85217365939452   -2.41382850043115    3.09089460433079
C         1.22871914276836   -0.03609521463914    2.28947727938251
C         0.18543842484680    0.92175942758486    2.61423240887901
C         0.28606955615035    2.37004813404210    2.37025188987341
C         0.30455161446318    3.24740527591182    3.45351119951645
C         0.45835228031574    4.60454408560561    3.25271487478001
C         0.59347946610358    5.12862349223633    1.96780004926487
C         0.77179708037053    6.57329583472046    1.75754663417099
C         1.66024998907174    7.04314149979440    0.79173219514251
C         1.83579517381465    8.40073155984532    0.59654591684561
C         1.12247423724309    9.31277423215094    1.35747972890340
C         0.23524850274318    8.85754531963176    2.31926561729084
C         0.06376287087788    7.50021789205913    2.52058829717070
C         0.56314299255763    4.24747133196468    0.88738955859849
C         0.41545636747504    2.88870769249949    1.08268403763857
C         2.51144786981137    0.27625673921635    1.60115943741379
C        -0.91925442924715   -2.07163763276485    4.60141260218016
H        -1.62363156921572    1.00347044648703    5.26556843058480
H        -2.77699280054403    0.28682282256866    4.15000474931658
H        -2.10409971796987    1.88831225912845    3.81036052875206
H         2.47257003941207   -2.25634644193632    3.97425508451897
H         2.50576343097311   -2.49669353912219    2.22736576452134
H         1.31332553488150   -3.34901566105409    3.21724064141611
H         0.22965681933479    2.86012698523154    4.45775137331146
H         0.50129935195103    5.26577394381471    4.10508525637210
H         2.23368149653872    6.34050030838814    0.20494172514034
H         2.53342228256973    8.74999622460405   -0.15108434478431
H         1.25924120235235   10.37299946951486    1.20277417806498
H        -0.32462742558261    9.56465568236142    2.91431350490962
H        -0.63826575479899    7.15635915480928    3.26599170578941
H         0.64110297283065    4.63280849916766   -0.11812181709288
H         0.37536718744878    2.22336282508407    0.23260360744098
H         2.77910995093113   -0.50610009630040    0.89447717032383
H         2.44640120764818    1.22131935733342    1.06980343879936
H         3.30551339310916    0.34772738086569    2.34583118910557
H        -1.99270517934476   -1.93067651083636    4.69317383306292
H        -0.71936825469785   -3.09266617975762    4.28721176322099
H        -0.47289818106378   -1.92847991014049    5.58619147480553
C        -6.63309584474042    6.06257961285808    0.54158823738787
C        -5.46838157080041    5.10722949151280    0.74872169948228
O        -5.95629936487348    3.78370040028994    0.54965381444644
C        -5.13426509281164    2.73429612480290    0.65846013105216
C        -3.75596525422138    2.81756509230563    0.96817718581369
C        -2.99170962527588    1.68951294202945    1.06809722799317
C        -3.53531551156858    0.40926039353772    0.85144644816613
N        -2.76221380409476   -0.69660531740581    0.93679088789919
C        -3.28330290684754   -1.88462908601564    0.58899776806706
C        -2.34394977132702   -2.95909168287386    0.54521227732517
N        -1.11351312500440   -2.68302210621789    0.83796514254733
C        -0.13407925228636   -3.68103943456295    0.75915434339848
C        -0.36473829573905   -4.94364117098130    1.31225041670575
C         0.62863419634935   -5.89861153152701    1.20551726404472
Cl        0.36540087429671   -7.47234449922554    1.89301128163511
C         1.82875389068133   -5.64096861462205    0.56029369603732
C         2.05206668966252   -4.37843765909930    0.00930616935614
O         3.17607081680292   -4.00780128844612   -0.63046868139460
C         4.20222038289011   -4.96252840318265   -0.83771965439451
C         1.06480342969449   -3.39623574326015    0.12447689448359
C        -4.64183501442606   -2.04599833008538    0.23997580848426
C        -5.46130181801476   -0.95729286974948    0.22496949567862
C        -4.92135922059781    0.32080692262421    0.50487622654917
C        -5.69021090501985    1.48355466640726    0.43398855388767
H        -7.02642443461225    5.96072238733840   -0.46596203515272
H        -7.42775064066053    5.84303231079156    1.24910759607378
H        -6.29635158567643    7.08426424529849    0.68956673502696
H        -4.66936696312512    5.32128772477199    0.02839161757368
H        -5.07379276269215    5.20573544253023    1.76711245103537
H        -3.28973355453282    3.77738501288182    1.11991763365894
H        -1.93672761240141    1.77677035761740    1.26790782983601
H        -2.64157651157410   -3.94524668906715    0.20803445555205
H        -1.28276987960294   -5.16240278828307    1.83181046589505
H         2.56830744919123   -6.42079139893801    0.49698343647436
H         4.61441914063706   -5.31424437867266    0.11151400067747
H         3.83962937273114   -5.81119638778384   -1.42301155402048
H         4.97447353570986   -4.43918984196684   -1.39760754194182
H         1.22730560997134   -2.42646555026610   -0.31848771045108
H        -5.00216810115928   -3.03111646729735   -0.00720716644685
H        -6.50786992865476   -1.04489098552231   -0.02069437116290
H        -6.73632643850521    1.41890134807920    0.18110453888557
Cl       -0.31695471383705   -0.18287838713802   -0.78485666574632
