64
 energy: -107.702473084004 gnorm: 0.000208300895 xtb: 6.4.1 (afa7bdf)
Ir       -0.63880115623881   -0.87992975733994    1.26550767393891
C        -2.11222034546643    1.00316408184550    3.75417847291694
C        -0.89728477672565    0.34330886522338    3.20310653059021
C        -0.50613531863063   -1.01219814210699    3.48857144556058
C        -1.21644529707234   -1.92132211368959    4.43275394030744
C         0.82084138270036   -1.20866253402653    2.96931949802187
C         1.72339176027995   -2.34456247379946    3.30004854252339
C         1.18708762473414   -0.04105448183899    2.24149873970684
C         2.54310957215973    0.24431737152311    1.69656043898249
C         0.11580718401399    0.93490400810448    2.39944151653952
C         0.24183957046817    2.36400869420721    2.06740938614330
C         0.15596678498140    3.30510643056795    3.09253444453701
C         0.33236070859472    4.64211702430053    2.79230183612831
F         0.25590593827882    5.54501305164880    3.79189341550125
C         0.58538927439675    5.09182210869316    1.50864606219566
C         0.65778492790489    4.13340042397885    0.51274076101372
F         0.89724813805581    4.53603046525255   -0.75183595268037
C         0.49369333413148    2.78431089154161    0.76311704178522
H        -2.26923981962757    1.98136414839423    3.30995950840581
H        -1.98864284812928    1.12156569323583    4.83105598232007
H        -2.99924457671089    0.39458626007506    3.59345241159008
H        -0.96689494858913   -2.96049149633517    4.23887048747879
H        -0.91277642770705   -1.68562588045498    5.45335827735034
H        -2.29306633719211   -1.79344087604047    4.36315078782297
H         2.23672366861426   -2.11353923479517    4.23423383773807
H         1.17210686555178   -3.27014000893766    3.43859546410397
H         2.47416451701427   -2.49091825128541    2.52936039473354
H         2.94132937161501   -0.61639178570882    1.16544674896903
H         2.52363818332310    1.09546456530454    1.02288550578768
H         3.21606910783659    0.47113660701302    2.52426793770874
H        -0.01712295293170    3.00826388751296    4.11381408602902
H         0.72060260505514    6.13875503892336    1.29450736318677
H         0.53839376597914    2.07683749606728   -0.05113844017293
Cl       -6.37228263353499    3.48655651653882   -0.11165832688832
C        -5.29177765533794    2.15006913300182    0.07994446455867
C        -3.95285660576576    2.40046860289937    0.43205655855769
C        -3.07954997417463    1.36238471488369    0.60045760462954
C        -3.49460198858010    0.02850294063939    0.41331220190514
N        -2.62482624840343   -0.99560614311819    0.58143835686575
C        -3.00374201157889   -2.23962225870506    0.24663854415310
C        -1.95096161492877   -3.20621418323453    0.29170922845495
N        -0.77770651494612   -2.78247421290076    0.64379295924124
C         0.31601903263817   -3.65863569293159    0.64734093417566
C         1.52001645294622   -3.24369781826476    0.07706492810396
C         2.59862705256997   -4.10768892017512    0.04969691961117
C         2.49712772765817   -5.37285115199639    0.61028268993462
C         1.30490581339617   -5.77977120095985    1.19073604177105
C         0.21152930661467   -4.93408922141894    1.20530716288754
C        -4.31557719289655   -2.54803174664118   -0.16588117735777
C        -5.23920939229333   -1.54612497074192   -0.24967531692784
C        -4.84271413995584   -0.21505226382634    0.01331334652027
C        -5.72973014931307    0.86722595923996   -0.13072429384369
H        -3.62447719233488    3.41904471408026    0.55994771172000
H        -2.04429466146283    1.55743369321490    0.83009735260587
H        -2.11533735436737   -4.22819937552127   -0.02902490406349
H         1.57641707953878   -2.26383062379817   -0.37201666922179
H         3.52248534144227   -3.79347480300590   -0.41060675733592
H         3.34545105892231   -6.03888709581129    0.59608124730698
H         1.22628970821386   -6.76058093775925    1.63328058587744
H        -0.71175784731850   -5.24293098852366    1.67128023173005
H        -4.56432070314355   -3.56964007491909   -0.40173374178875
H        -6.25917978264985   -1.74664572330831   -0.53799902426427
H        -6.74918801853521    0.67540912531122   -0.42457391918631
Cl       -0.12627737309996   -0.22464706931047   -0.96812708648920
