77
 energy: -117.771573507394 gnorm: 0.000868216830 xtb: 6.4.1 (afa7bdf)
Ir       -0.68211917035218   -0.87704998232720    1.45534898694130
C        -1.67509229280674    0.56342518729420    4.41118139666571
C        -0.58327676315311    0.05392279926854    3.54106666708751
C        -0.09113367571484   -1.28855414725838    3.57761499350537
C         1.06766971452263   -1.35712355376492    2.72272508810169
C         2.08535966671297   -2.44614590877660    2.69446592581537
C         1.29027274405273   -0.04472591487813    2.17084888905828
C         0.25623097220333    0.82252185658942    2.65253709898854
C         0.29023823996421    2.28105579401193    2.49807070993951
C         0.23652642195873    3.10755579510822    3.61923088453255
C         0.33584939957906    4.47707806428126    3.48115595632619
C         0.49168177050384    5.06283516051246    2.22605024462058
C         0.60312536090188    6.52226143897853    2.08789487576087
C         1.52360047667740    7.08398523595869    1.20494825020487
C         1.63594455446916    8.45699505937932    1.08450155497776
C         0.82602331210212    9.29129556429575    1.83801510875321
C        -0.09612471498283    8.74339371257630    2.71503335715844
C        -0.20477539705009    7.37081476361150    2.84246595402906
C         0.54779239994069    4.23191128016475    1.10796403794611
C         0.45172720689399    2.86222506292549    1.24040887564083
C         2.49214863633763    0.35601330033549    1.39572918530779
C        -0.55283148486675   -2.34503622072866    4.52274063687398
H        -1.33266816440605    0.54536846533640    5.44688359033077
H        -2.55628127666907   -0.07184999681055    4.34990010683949
H        -1.95024603636446    1.57962294300263    4.14954365237534
H         2.93539359893008   -2.13361809418638    3.30354392650720
H         2.44824888131552   -2.62083299906631    1.68488823271360
H         1.70180349215256   -3.37125229797090    3.11343477821997
H         0.15294004422633    2.67740567555139    4.60448649399778
H         0.31650066797168    5.10252786255406    4.36073512902944
H         2.17094431974246    6.44150224457558    0.62629972146216
H         2.35945793788152    8.87960770225182    0.40239628235570
H         0.91303511526415   10.36371802797636    1.74191423119285
H        -0.73308556548615    9.38982341002867    3.30126624484252
H        -0.93678898797878    6.95172792260241    3.51719423910493
H         0.64950543997222    4.66718169031932    0.12520513322693
H         0.46794292844864    2.23390248027583    0.36252465239639
H         2.39046709413663    0.07907966137197    0.34664764844133
H         2.62962324581767    1.43342772399454    1.44484012893234
H         3.37316868090150   -0.14443418421413    1.79181643559303
H        -1.60830317221116   -2.23101214126662    4.75089098228707
H        -0.38426215898232   -3.34233428256463    4.12693171493829
H         0.00687440828370   -2.25317136235627    5.45422352773446
F        -4.75409380016530   -2.64010589679987   -1.37674224060576
C        -4.35399896964124   -1.52914932086640   -0.75059180602371
C        -5.06125641985736   -0.35131563596834   -0.89367192723213
C        -4.58236806050860    0.75839356195637   -0.21653003039730
C        -3.43053596485428    0.64148636670037    0.55346117967824
Br       -2.84355539543133    2.17384812873851    1.46710865314630
N        -2.74341464467509   -0.48884980628751    0.69462066507129
C        -3.20037517647164   -1.58385953683700    0.04088233314125
C        -2.41592628924267   -2.77302253401818    0.17682979124687
N        -1.29092200279730   -2.70702296097987    0.79983502772310
C        -0.47987247600301   -3.89853366003885    0.83616453167011
C         0.50389625259295   -3.89595907954539   -0.34461376519750
C         1.44344890158301   -5.10479180959244   -0.28378050989486
C         2.33110727846053   -5.12093678481054   -1.49821945657218
C         3.56414440415406   -4.48116286253258   -1.48578001873403
C         4.36516997704312   -4.46928833577272   -2.61441690235633
C         3.94008933795893   -5.09618894511423   -3.77397943946629
C         2.71150186941908   -5.73578565355157   -3.79725422599931
C         1.91267032716740   -5.74464508934037   -2.66732669510553
H        -5.94667620097442   -0.30874694374332   -1.50771874533770
H        -5.09250591486225    1.70660356244198   -0.27413157148781
H        -2.77754326666554   -3.69626994541475   -0.26566550093759
H         0.07670594148505   -3.92513300610926    1.77100244618118
H        -1.11500904364161   -4.78734203988835    0.77188248025949
H         1.08196683429782   -2.97091136296805   -0.33827040691513
H        -0.05986585988796   -3.91922266506880   -1.27877882224074
H         0.85309220127687   -6.02200905523270   -0.25051360899739
H         2.05350828338983   -5.05549552456271    0.61900103285326
H         3.90802054505303   -3.99560487914203   -0.58440927294777
H         5.32344899209812   -3.97110454360792   -2.59112640013995
H         4.56455107296768   -5.08933556673264   -4.65547834488585
H         2.37589134401334   -6.22888764041084   -4.69854241162287
H         0.95589433191742   -6.24807879130976   -2.69426172084564
Cl       -0.17384127996436   -0.36341654250055   -0.80633684768186
