74
 energy: -122.403273967616 gnorm: 0.000760167957 xtb: 6.4.1 (afa7bdf)
Ir       -0.65801558517020    0.10442933096207    1.42234733807668
C        -1.81084440570358    1.62250022748149    4.26137999100771
C        -0.66492882088766    1.06515310968517    3.49366097239203
C        -0.23321231539984   -0.29820873109216    3.58061469440662
C        -0.81138983735143   -1.32840752278866    4.49030491408471
C         1.00503214647780   -0.41905715162061    2.85777578344262
C         1.93622920454211   -1.57928824081940    2.91780707390119
C         1.29178633884698    0.84059837783932    2.25669717434660
C         2.55892640082470    1.18714178776008    1.55426936571863
C         0.24804673106286    1.77425924238967    2.64701652866265
C         0.37731454990876    3.22724819869229    2.49896101309613
C         0.19213497470255    4.05997771278714    3.60265439810396
C         0.42560495405516    5.41494504908225    3.47464533381324
F         0.25285312390795    6.20234437847134    4.55521890754818
C         0.84942755791249    5.99116288598509    2.29100365119880
C         1.02024416840552    5.14226379582642    1.21239641703357
F         1.42699401306140    5.66783214869806    0.03860643820392
C         0.79023454736977    3.78245056370000    1.28821862243098
H        -2.07685354129577    2.61285020665911    3.90631539268522
H        -1.53228468686445    1.68481293937368    5.31438027345802
H        -2.67996184724126    0.97134855309429    4.19524249709616
H        -0.60169175025178   -2.33160703171150    4.12969758910532
H        -0.36066466654826   -1.22409613460058    5.47784571719436
H        -1.88549530939269   -1.20446886765928    4.59598878046125
H         2.63402065508233   -1.42093394349435    3.74133589164977
H         1.40536982819591   -2.50916151752271    3.09867831881321
H         2.50723819987642   -1.67601983699942    1.99901240534127
H         2.44457247459834    1.10424535457290    0.47366403577750
H         2.84255733744616    2.21315047763999    1.77956879900965
H         3.35636162397359    0.51689393509118    1.86384853710332
H        -0.08747261078965    3.66973425706516    4.56631997836286
H         1.03825487297545    7.04908128824855    2.21923042269691
H         0.91452454999915    3.16923554803925    0.41072090075563
C        -0.95607431624340    8.47244041660177   -0.39413165449645
O        -1.37212336216694    7.12330097890208   -0.20134414595072
C        -1.94892352556919    6.78690023997937    0.95173414283386
O        -2.16361415642658    7.55945833779398    1.86046596311334
C        -2.30265606460943    5.34419898336910    0.99257904282752
C        -1.85320936275982    4.45546350554383    0.02031520766113
C        -2.20722953404100    3.12188095209151    0.08408075679042
C        -3.03634698018422    2.66353016042009    1.10513758952817
C        -3.55807936981656    1.28797568670509    1.03619919644224
C        -4.94514451569724    1.13492155998791    0.95055251837007
C        -5.49831380281366   -0.10975369068771    0.70852218128040
C        -4.64414616551095   -1.18534527299227    0.53421371905594
C        -3.27515866414887   -0.98312383472785    0.68163362883410
C        -2.31319454345343   -2.03622616390619    0.53219709149342
N        -1.07180807814882   -1.75423826559181    0.75260922841273
C        -0.10290661448643   -2.76112589682616    0.62387166586396
C        -0.31047788841950   -4.01339078067511    1.20672819979618
C         0.64150398033608   -5.00447684868073    1.06026976741024
C         1.79258957197600   -4.76555398245884    0.32370710722053
C         1.99876465882433   -3.52166392643558   -0.25388240134376
C         1.06508786031402   -2.51405569647281   -0.09609722123110
N        -2.73780935381377    0.23357147389890    0.96229680462949
C        -3.50094841767991    3.55922934847189    2.06900342875822
C        -3.11462914914161    4.88367622328408    2.02682975239372
H        -1.15911709665830    9.05971491774338    0.50300628670212
H        -1.50543153628886    8.87920469272475   -1.24276664184697
H         0.11151921331137    8.46174774593134   -0.61297479769124
H        -1.23944168591128    4.81585917183128   -0.78913394099558
H        -1.87168373192605    2.44149406380295   -0.68101434896647
H        -5.56709242282571    2.01036736431150    1.04629471839161
H        -6.56720938550932   -0.23181090553472    0.63404660027845
H        -5.01631509879182   -2.16900308984146    0.29910159021058
H        -2.62269863397147   -3.02209482514581    0.20400039724339
H        -1.20020257346435   -4.19152279027229    1.79158670104027
H         0.48459567056411   -5.96738054615080    1.52101708555727
H         2.52762691748430   -5.54597963487168    0.20368588756720
H         2.89101100512834   -3.33371105348166   -0.83048588753387
H         1.20753974999536   -1.54778945037700   -0.55301845951438
H        -4.16475041795601    3.21823141229993    2.84885567729853
H        -3.45200184491802    5.58739119591680    2.77245699888520
Cl       -0.09116821087242    0.68505483260451   -0.80980659335286
