76
 energy: -114.023509517496 gnorm: 0.000516910357 xtb: 6.4.1 (afa7bdf)
Ir       -0.58651056688632   -0.74034556418625    2.24941107044798
C        -3.03413087078382    0.66612052052189    4.23008858191672
C        -1.62293631931527    0.23059776495418    4.03898276550735
C        -1.17488357366147   -1.09984714991789    4.37750837001133
C        -2.03212165532436   -2.16007084005475    4.97859421874219
C         0.26135152557685   -1.11312155754717    4.32560842610801
C         1.13748954961204   -2.17231966159645    4.90029728333894
C         0.68798476128871    0.15668788492285    3.83437166432802
C         2.09759602173697    0.63266377221623    3.75908260625959
C        -0.49015561889374    0.99969701071255    3.65841596720051
C        -0.38993433012618    2.48321683741301    3.42416135176992
C        -1.25615926505593    3.03009468792357    2.28420356552337
C        -0.97628295759439    4.51881645365712    2.09541810127552
C        -1.27054759625275    5.28414795540035    3.38321377731797
C        -0.43644130507154    4.73162949206238    4.53618850816560
C        -0.69861615942343    3.24022419734632    4.72666843628828
H        -3.73235977963680   -0.05784551899222    3.81436052669885
H        -3.23057197966798    1.63964910158136    3.79522229183000
H        -3.22908735287661    0.72754058677679    5.30182667625091
H        -1.60558043763897   -3.14695830675799    4.82540673426129
H        -2.11146328756548   -1.98765494000740    6.05250498341773
H        -3.03452514970945   -2.14194482368105    4.56078300592341
H         1.34615441772378   -1.91234281388289    5.93923522456651
H         0.65038085562316   -3.14335513618859    4.89439735333273
H         2.08928412376199   -2.23459500861584    4.37988071391074
H         2.79637913030964   -0.19593264049502    3.81328690744821
H         2.27860254589492    1.17724805250281    2.83495351351517
H         2.29288107361993    1.30615945007258    4.59397649783405
H         0.64827368984147    2.69894928079741    3.15432022903924
H        -2.31774502203887    2.90958183004064    2.50321660743775
H        -1.02611960645853    2.49195502204590    1.36317149272613
H        -1.59236311786049    4.90817086867714    1.28227006803686
H         0.06979752198956    4.66368536722931    1.81621229803505
H        -2.33264690088073    5.19521403002287    3.62474530305442
H        -1.05217192567832    6.34441833910801    3.24251672144927
H        -0.67700503123114    5.26570334966280    5.45752384177035
H         0.62292599233110    4.89435582693172    4.32481721757215
H        -1.74198973173320    3.09102798802756    5.00551220035831
H        -0.07472931013479    2.85491979108312    5.53519268860538
F        -6.18294073104950    0.72265410088834   -0.65860978094015
C        -4.95241575107393    1.24863805470044   -0.53225340958730
F        -4.99680431817205    2.07594336030312    0.52070752885119
F        -4.75458378817657    2.01335554475641   -1.61806412199187
C        -3.90046341396154    0.18124593976327   -0.39181855763337
C        -3.77488783312157   -0.79822634403651   -1.38284284207322
C        -2.81063138850741   -1.76931702750955   -1.21734667195555
C        -2.00372517520392   -1.74213832628730   -0.07573891371643
C        -0.97566080847750   -2.69084115395092    0.22151154642837
N        -0.25491710071743   -2.48911965285355    1.27832272875501
C         0.76301401607354   -3.47353366037858    1.57895065517973
C         2.01639219052194   -3.31374470687861    0.69954478458810
C         2.94678005413588   -2.20098076297376    1.19051632492939
C         4.08823783636885   -2.03413916820483    0.22606560865293
C         5.26763319297668   -2.74993728569871    0.38655647612634
C         6.29756190683091   -2.62558770033376   -0.52997010439702
C         6.15734728105999   -1.78497292156749   -1.62158492702744
C         4.98496169444130   -1.06598934368324   -1.78895679093135
C         3.95727603563936   -1.19182086538995   -0.87122547721868
N        -2.13899408176110   -0.78078029588495    0.87336573530275
C        -3.06231938351076    0.15899609564666    0.71006891911068
H        -4.41926929108909   -0.78497918263544   -2.24819894856247
H        -2.66677380085974   -2.53998991703395   -1.95714984492871
H        -0.82487588804003   -3.55588995089913   -0.41488696845652
H         1.04675200729401   -3.38444635745697    2.62556869616082
H         0.34337472326438   -4.46864488056353    1.40668008220043
H         2.55980998654542   -4.25943443235367    0.70171397189391
H         1.71516850039119   -3.09986146747106   -0.32669330283136
H         3.33606577026263   -2.46082081975653    2.17578535894213
H         2.38695402452865   -1.26806307882892    1.25760344382495
H         5.38609374261832   -3.40824005740146    1.23556267877094
H         7.21200568678558   -3.18509991369073   -0.39403609220021
H         6.96015143828549   -1.68806379336802   -2.33824325369627
H         4.87421803625433   -0.40538307182763   -2.63711613183056
H         3.04594237212396   -0.62593141423824   -1.00072909810702
H        -3.13944174243221    0.91531653301606    1.47632676757143
Cl        0.51352064194910    0.38135542428221    0.45763513951665
