72
 energy: -110.786861927940 gnorm: 0.000559787575 xtb: 6.4.1 (afa7bdf)
Ir       -0.77766363267110   -1.09891354855167    1.35164771789359
C        -1.72046332010902    0.92717712833967    4.05388438566811
C        -0.67639443102190    0.22117116068652    3.26101719866582
C        -0.38334395356266   -1.17473988464889    3.52869023842148
C        -1.03714131654608   -1.98901853200698    4.59379706769472
C         0.83403435846484   -1.51269161811258    2.86101722338467
C         1.67062507603918   -2.71191566793853    3.13712101031132
C         1.19394172132957   -0.39395535022180    2.04300726996338
C         2.47351161678032   -0.26706277609503    1.28920179181667
C         0.28686273399862    0.71218049532439    2.33913126029894
C         0.65329840533029    2.12081874587529    1.93532965508302
C         0.28886590444490    2.47509589332382    0.48626408345298
C         0.93436839666336    3.80114523242260    0.09566121976166
C         0.48561068172215    4.91722743963429    1.03499938784496
C         0.78912248109090    4.55040230751175    2.48496581632744
C         0.11767063671437    3.22695001203021    2.84752029690653
H        -2.62548457481558    0.32740559606924    4.11762802850613
H        -1.97562612778991    1.89736253775553    3.65198700455015
H        -1.34252626113037    1.05654885015066    5.06898201797112
H        -0.84341661319554   -3.04776344258881    4.44806090613537
H        -0.63345207899141   -1.69962111380105    5.56457572689847
H        -2.11092504530877   -1.82606951099923    4.61666459704367
H         1.06638963997414   -3.59339165629310    3.33205246234072
H         2.34705736894171   -2.92627946772013    2.31612506198918
H         2.26671162158981   -2.50709132203370    4.02733728382098
H         2.84657768569276   -1.24079548521522    0.98513176843119
H         2.35094832045423    0.34929911848668    0.40318995855344
H         3.22118754539489    0.20031300577264    1.93187220316785
H         1.74904108239110    2.15554758932012    2.00227922626700
H        -0.79337764077515    2.56353617233497    0.39838089565279
H         0.61354114805490    1.69048058052585   -0.19560868098896
H         0.66293297328884    4.05034494904690   -0.93223070346720
H         2.02267804052661    3.70761571880703    0.13719376904265
H        -0.58923313982238    5.07458208852154    0.92051321727277
H         0.98900843938123    5.84996693189864    0.77215395140838
H         0.42740850071038    5.33824994333158    3.14847859637085
H         1.86988082936417    4.46951892109179    2.62386406227687
H        -0.95586396445655    3.34451781790377    2.70093219284276
H         0.31556272013035    2.98732247227501    3.89273050872508
C         4.50354888383950   -4.71361225155102   -1.08181466652366
O         3.37404963123838   -3.88446308360372   -0.87117517621641
C         2.31680332070015   -4.36929217562479   -0.19577386522880
C         2.25183962168074   -5.64128587195225    0.37492259700420
C         1.11054528810013   -6.02031826917809    1.06485150083934
Cl        1.04640506299915   -7.60180458581485    1.77919380068867
C         0.02501005344729   -5.17545664305302    1.20210514149088
C         0.09675917436141   -3.90342540386142    0.62890249361895
N        -0.98466753503059   -3.01565350471172    0.73351223054026
C        -2.17489002072562   -3.43577082483456    0.45187849093769
C        -3.24639706071092   -2.49263127286526    0.46985833705522
C        -4.53257307636947   -2.78754598756500    0.01781767407995
C        -5.47698214797172   -1.78704339285747   -0.08050901066192
C        -5.10729880514802   -0.48229693238119    0.25702654585243
O        -5.86960156009360    0.60337520163427    0.19227793533268
C        -7.21208782473104    0.49699264567108   -0.25877043727478
C        -3.79059369938310   -0.27926783322247    0.72348118035466
Br       -3.33458843154892    1.48504979088309    1.13783140251490
N        -2.89503059054514   -1.23751867415162    0.85956507232757
C         1.23030045610257   -3.50018269195632   -0.05858779474820
H         4.96493321445667   -5.00343910397543   -0.13424445641456
H         5.20205904140015   -4.10837249873558   -1.65565167744343
H         4.23875371406499   -5.60570272900438   -1.65461983998352
H         3.06971447930524   -6.33636719810494    0.29176673913097
H        -0.84325402683736   -5.48387682366953    1.75995356006849
H        -2.35205874895520   -4.45295569424180    0.12141061360593
H        -4.77445077661145   -3.79766235088769   -0.26955429271050
H        -6.47132282412578   -2.00674335708839   -0.43286754809322
H        -7.25139599008119    0.12671970137401   -1.28546849052559
H        -7.60640817689593    1.50992601928473   -0.21970020839422
H        -7.79508317547429   -0.15088508298488    0.39908145781368
H         1.26569460951633   -2.52706737148590   -0.52126142268932
Cl       -0.66058990804388   -0.53770408170714   -0.97302056463799
