68
 energy: -114.939504476762 gnorm: 0.000437531467 xtb: 6.4.1 (afa7bdf)
Ir       -0.73164001768124   -1.19381096914844    1.25513842579395
C        -2.00900007759566    0.53883601613771    3.88960264195062
C        -0.81787411622355   -0.06260882345497    3.22847314678029
C        -0.35269276621007   -1.40199124551293    3.44369287053005
C        -0.92887639988448   -2.37158283829586    4.41812411143161
C         0.91399239611606   -1.54643506375075    2.77122781885048
C         1.87327411362868   -2.66985211381806    2.95560685506406
C         1.19057004958142   -0.33681793940861    2.07797540017139
C         2.46572716235588   -0.00454301957907    1.38432325583506
C         0.10532498089414    0.58978563138310    2.34780915393921
C         0.16328063689271    2.02546821347088    2.03596943510008
C        -0.01734944601277    2.96431175742059    3.05073924286121
C         0.08625184662608    4.30859123314259    2.74794861353550
F        -0.08673241174201    5.20851118608754    3.73802420653531
C         0.35987629239210    4.76876732441449    1.47232038013721
C         0.53697381640969    3.81229094805388    0.48711602607350
F         0.80275540329835    4.22390607834398   -0.76899338090943
C         0.44858250247145    2.45728420059839    0.74004634508203
H        -2.30478756419169    1.46568727137095    3.40741309545673
H        -1.76883297499317    0.74581149285918    4.93313445614436
H        -2.85130946046065   -0.14899424361386    3.87974705935533
H        -0.68962333084188   -3.39418734133853    4.13899521181388
H        -0.50322319999103   -2.18270295483971    5.40426931737313
H        -2.00739089712891   -2.26370742750194    4.49034668577976
H         2.50531294090505   -2.44679584778565    3.81614573738974
H         1.36091386832573   -3.60822144416101    3.14627614111462
H         2.50863465913394   -2.78702473180147    2.08316590633650
H         2.45493559254370   -0.35770589746906    0.35383083154981
H         2.61541250191475    1.07224064609599    1.36526842114692
H         3.30182645157588   -0.47571366767446    1.89539115824565
H        -0.20710024533386    2.66480104355914    4.06760794581506
H         0.43494603525104    5.82136561652910    1.25660458744131
H         0.56930245980515    1.75052701945331   -0.06650632241638
C         4.23349602976523   -5.51649374840237   -0.77510989674933
O         3.20430356445627   -4.54922855318819   -0.65996583589722
C         2.08595475837258   -4.85568559036399    0.01886731082174
C         1.86178591208546   -6.06374335008399    0.68140628174621
C         0.66240174483511   -6.26384404608283    1.34846882818751
Cl        0.40168887178779   -7.76717718446288    2.17750524937552
C        -0.33147871148720   -5.30285995811232    1.36795979767834
C        -0.09726656456922   -4.09330768935831    0.70848384920872
N        -1.08498477134002   -3.09637497621216    0.69549103119235
C        -2.30013599971545   -3.40419628124015    0.37380620526462
C        -3.25268477352680   -2.33728363734083    0.33235331482863
C        -4.59589299903683   -2.53051973465794   -0.04463535950309
C        -5.43019321270575   -1.45076612989846   -0.10871604706287
C        -4.91313766027085   -0.16226594240773    0.14235361277793
C        -5.70488346324528    0.99796726648613    0.03311925456640
C        -5.16119885792980    2.23803683639501    0.23352223095913
C        -3.79666084902425    2.36423921877201    0.53859978070553
C        -3.00476776312476    1.25618598080050    0.67523602635271
C        -3.53627947523283   -0.03483732592614    0.49972321716368
N        -2.75136639864813   -1.13155764939345    0.64432308479549
C         1.10154328942026   -3.86313215604843    0.05237875287232
H         5.00261068895430   -5.04844438260663   -1.38569962079745
H         3.87339138847244   -6.41998672401351   -1.27320088365522
H         4.64896517605187   -5.77132132414651    0.20298652909859
H         2.60118225916943   -6.84621929535735    0.68687167523717
H        -1.25159544977965   -5.47499453487177    1.90093824808362
H        -2.57436713108086   -4.41194876301459    0.08484522833957
H        -4.93815808941585   -3.52704717497017   -0.26989720140508
H        -6.47148884221289   -1.56197348207121   -0.36868567844406
H        -6.74662763229467    0.88714966428375   -0.22548705948334
H        -5.77074092854328    3.12308620220191    0.14245475369618
H        -3.36805826494449    3.34659665887492    0.66185982173193
H        -1.95093578014194    1.35764767162400    0.87237729509388
H         1.26784070389270   -2.93559916503499   -0.47155494042649
Cl       -0.21426657071162   -0.65418780992645   -0.99848063778706
