73
 energy: -98.182312822236 gnorm: 0.000390948049 xtb: 6.4.1 (afa7bdf)
Ir       -0.14739900287450   -0.38964489572141    1.96974475877830
C        -2.47873867331682    1.24135734060439    3.92027162746747
C        -1.09098904944789    0.73705459005439    3.71316087728269
C        -0.68182785272395   -0.58120770897935    4.12897598627400
C        -1.56034168325504   -1.55970200080427    4.83255237741165
C         0.75370324696545   -0.64701440787858    4.05167486733403
C         1.60233346600344   -1.70148891837601    4.67654559229769
C         1.21113948438654    0.56384061440987    3.46752167968918
C         2.63484612970010    0.98674689202034    3.33115698594167
C         0.05918272689615    1.43162428968479    3.24701383398683
C         0.21128571187538    2.88628217852488    2.89103573137423
C        -0.68687581035196    3.38160762021076    1.75304146821525
C        -0.34688234777575    4.83281937643145    1.42414147581829
C        -0.52742807691255    5.71806094941890    2.65514663728317
C         0.33597432253023    5.21470498174647    3.80923503827926
C         0.00507811219774    3.76131189183260    4.13785863766587
H        -3.21714142604704    0.53637238393738    3.54302353498195
H        -2.63876925813916    2.20761920617305    3.45595851329215
H        -2.64604723810594    1.34731636014889    4.99315505059712
H        -1.17847287006735   -2.57238534555931    4.74104302278227
H        -1.59987383453519   -1.30683340894920    5.89283421110297
H        -2.57346322572351   -1.53123956961421    4.44174447500030
H         1.84639660308364   -1.38675757928414    5.69227750197279
H         1.07813595328888   -2.65106269634222    4.74123531180655
H         2.53788682690195   -1.83645602201228    4.14029351017147
H         3.30830736490798    0.14435344681066    3.45415903608328
H         2.81984293996356    1.43604322600241    2.35754913994203
H         2.86593429294515    1.72812617019380    4.09659747242667
H         1.24280096586488    3.02945232142940    2.55516109308925
H        -1.73846962667980    3.33332974514409    2.03676589793717
H        -0.53073869439296    2.75710059272464    0.87214777704972
H        -0.98892014778717    5.18680809244130    0.61485432624654
H         0.68717312432423    4.89718904419369    1.07780402031611
H        -1.57760118100059    5.71346625835176    2.95761220344403
H        -0.25824580469634    6.74822132746566    2.41314338322276
H         0.17606845934118    5.83677493510737    4.69239259018239
H         1.38995634240439    5.29617404085574    3.53267520457541
H        -1.03004993240908    3.69302048604495    4.47433973141329
H         0.64581152200575    3.40899116123173    4.94855239457106
C        -0.67533598039184   -2.50638095661286    0.14190075124414
N         0.11321046636672   -2.23044762892741    1.12617872059773
C         1.14632857769798   -3.19660639592295    1.43830574950776
C         2.37913045849950   -3.05532712147283    0.52764708498874
C         3.34242076638146   -1.96299905742929    1.00062680735012
C         4.46777952402848   -1.80463651309781    0.01645457536779
C         5.62520474965299   -2.56427931039143    0.12824901842047
C         6.64196518008013   -2.44052414817328   -0.80291305446661
C         6.51093635799292   -1.55534784329998   -1.85991524001985
C         5.35982850054772   -0.79401287965354   -1.97949295884437
C         4.34506970455462   -0.91961947774526   -1.04741563360902
C        -1.71000272390115   -1.56403367573515   -0.16851228578198
C        -2.60910920746090   -1.69370461892889   -1.22727280097903
C        -3.56495428451594   -0.71397064514615   -1.41856780597112
C        -3.59092584946517    0.37057429177612   -0.54830741424724
C        -2.66408325062606    0.43754381329611    0.47690809893392
N        -1.74744280245025   -0.50522506951259    0.67634678702878
H        -0.57749332837550   -3.42290052175896   -0.43021883071947
H         1.44968907333095   -3.06949425361084    2.47571551121606
H         0.73185781698510   -4.20089834363065    1.31079653469924
H         2.90563584183754   -4.01049397793586    0.50834526670286
H         2.05438834154686   -2.82835422100968   -0.48886023615799
H         2.79890853221706   -1.02208308915203    1.08302839634293
H         3.74674198505842   -2.23521583060323    1.97711047554842
H         5.73658150407022   -3.25655331369163    0.95108954695716
H         7.53940789274685   -3.03462393142926   -0.70474364464935
H         7.30394747013545   -1.45789332764693   -2.58747651716070
H         5.25525590060364   -0.10031695717420   -2.80171382949104
H         3.44972598273224   -0.32214877259740   -1.13986316713354
H        -2.53867520684851   -2.54678965133834   -1.88264838075430
H        -4.27381901387786   -0.78642316870388   -2.22812246966526
H        -4.31962909164784    1.15639972723491   -0.66078542185192
H        -2.65661605468138    1.27412979120856    1.15762299139472
Cl        0.93102530785512    0.54125310915008    0.05248639789125
