61
 energy: -113.473847076800 gnorm: 0.000612164539 xtb: 6.4.1 (afa7bdf)
Ir       -0.54073062099043   -1.18113708149856    1.28682913042217
C        -2.08547335915185    0.60245752188611    3.73830619988769
C        -0.82951352350318    0.03038709943869    3.18360691351885
C        -0.29426020276267   -1.25993881744392    3.50942732062872
C        -0.87111237009689   -2.20140716491455    4.50759550531503
C         1.01776053416520   -1.36111248018958    2.91867443448205
C         2.01788560403607   -2.41708412942542    3.23553231336416
C         1.25421418263192   -0.18047505272259    2.15847316680463
C         2.54249417093081    0.21955255229306    1.53381772411172
C         0.08988258246089    0.68255301268902    2.30413456791113
C         0.04729768372662    2.10199670529688    1.90901029301412
C        -0.07749823761609    3.07364026139133    2.90042406072596
C        -0.07053166476338    4.40721540695432    2.53661293261440
F        -0.18706990768378    5.34034708912820    3.50264273534634
C         0.05260300382271    4.82159511553439    1.22240795862643
C         0.17007836890503    3.83164329241312    0.26249009418053
F         0.28784922160828    4.19610181254615   -1.02983675344232
C         0.16990866787471    2.48564628859262    0.57652926946097
H        -2.34105519573711    1.53773004096811    3.24894131249616
H        -1.94240227116284    0.79747343859930    4.80155996784588
H        -2.91611310513618   -0.09397097188035    3.64669968483319
H        -0.56167436845915   -3.22327689392392    4.30824693517438
H        -0.51084851737393   -1.92874197448933    5.50028790636740
H        -1.95579988991576   -2.14880798541828    4.51692013103944
H         2.52841450856244   -2.14231423375493    4.15934918110099
H         1.54543257176957   -3.38369709784811    3.38763038940194
H         2.76385124284642   -2.50726181283109    2.45201772210207
H         3.09637232574971   -0.64637713200536    1.18269903364351
H         2.38152581920703    0.89920093018824    0.70228094952369
H         3.14935550957629    0.73404763717992    2.28021531635513
H        -0.15494130963805    2.80851559755117    3.94205253787621
H         0.05850857840937    5.86611212595195    0.95908505749912
H         0.24343299850781    1.75132871662710   -0.21030890353773
F         4.49222096172238   -6.62444060870794    0.11588360505432
C         3.46822656805204   -6.88685348461560    0.94027834384622
F         3.05767894375315   -8.13603480318484    0.65858257039614
F         3.99207636453061   -6.94151393858118    2.18396713255021
C         2.35556829186085   -5.87966029641907    0.84516657372146
C         1.10200275724388   -6.21220683427955    1.34814019960553
C         0.07084989057607   -5.29451843844942    1.27895817012834
C         0.29922703773956   -4.03611670048281    0.72231504754950
N        -0.73673555716009   -3.09196680706442    0.63850449476668
C        -1.85879417966504   -3.41189101471487    0.07279444484544
C        -2.85170339334907   -2.38541103575007   -0.01406062737501
C        -4.07986265473915   -2.51588980645339   -0.66830824701992
C        -4.92999182061124   -1.43153236552804   -0.73560962283158
C        -4.52033923058313   -0.23606371787549   -0.14449778453026
Br       -5.62700833161292    1.30995476983285   -0.19557765883514
C        -3.28987589788533   -0.16813686299652    0.49769420313752
N        -2.47900419903413   -1.21510800386464    0.56722755427336
C         1.56191474061098   -3.70286529454241    0.23400920748726
C         2.58761312514834   -4.62731959698019    0.28738402603048
H         0.93597625083428   -7.18711815647448    1.77964968369471
H        -0.90233488675792   -5.54349274162266    1.67205081394324
H        -2.02002346623136   -4.39199651223535   -0.36084781176810
H        -4.34712819516523   -3.45648256134389   -1.12296921353112
H        -5.88292756868803   -1.49809659361809   -1.23622981904950
H        -2.96098894099313    0.75243137281708    0.95606679239743
H         1.71509293970559   -2.73350334387723   -0.21540873045225
H         3.56155900376273   -4.38376114373208   -0.10759832002585
Cl        0.01802641609944   -0.67423529619397   -0.97569911669626
