64
 energy: -115.325757206677 gnorm: 0.000626403373 xtb: 6.4.1 (afa7bdf)
Ir       -0.54865029520059   -0.83949767868599    1.61473666642992
C        -1.87092776363941    0.87621586583713    4.32716010710188
C        -0.70036501047302    0.29350615328898    3.62296923274087
C        -0.23092695077460   -1.04789163409306    3.82108171488761
C        -0.81283113153860   -2.02033141398485    4.78854157125803
C         1.03834361796171   -1.17608612935286    3.15589698185332
C         2.02595966957992   -2.26968579353978    3.36142963588189
C         1.29902148999386    0.04580246538224    2.45915815263773
C         2.59046021854483    0.39287153562269    1.80811482262673
C         0.21019086332740    0.96100243344641    2.74598574741956
C         0.24051079679277    2.40002796955318    2.44426866845765
C         0.15617246980756    3.31984291816131    3.48735323049428
C         0.23248756228524    4.66964537674279    3.20000800739511
F         0.15459448000582    5.55152021301215    4.21757220320030
C         0.38797749836562    5.15065450785990    1.91284181425511
C         0.46948878691203    4.21129588752175    0.89970104255623
F         0.62133504288704    4.64400677259155   -0.36892457324824
C         0.40321346370965    2.85246237628675    1.13683460121552
H        -2.09237368261978    1.87626518656656    3.96986773440146
H        -1.64550906547483    0.92150382642022    5.39344927193183
H        -2.75394553616899    0.25177007243186    4.21125678961708
H        -0.51772815137389   -3.03756364659531    4.54874933433705
H        -0.44655004084758   -1.78868314197577    5.78933610250321
H        -1.89704822270705   -1.95580310689643    4.80574216306408
H         2.63918862816719   -2.01261643081908    4.22626029259070
H         1.54192194157661   -3.22083686140540    3.56284422017686
H         2.68454731961121   -2.37516364090550    2.50438223028061
H         2.88965498061944   -0.37068890101428    1.09406680223854
H         2.52679940904052    1.34683340505253    1.29420175012384
H         3.36418420695519    0.45712105872932    2.57375706121715
H         0.05897470613472    3.00197473168448    4.51213402791678
H         0.44338962811981    6.20648105138715    1.70696043556531
H         0.44543558180968    2.16052630226153    0.31036537173167
C        -6.80470575350965    0.94947895403066   -0.36706881457846
O        -5.47309985830744    1.01625537517920    0.12818611904030
C        -4.74841495973850   -0.08600066787099    0.22288838366666
C        -5.14332923097497   -1.38044996141165   -0.13175350550834
C        -4.23805582615794   -2.41150260654344    0.00438145836982
C        -2.96609997072616   -2.15940914248395    0.51838906628032
C        -1.93024968279116   -3.13799632936204    0.57428286764281
N        -0.75522484871596   -2.75727306585834    0.96381009496097
C         0.30798137151289   -3.67073899330603    0.94480078090992
C         1.47839976967740   -3.33533906381788    0.26026639274958
C         2.52256939716587   -4.23513085755794    0.20437850188761
C         2.40282703867887   -5.46327529526539    0.85050741413211
N         3.48948021549214   -6.40171344535729    0.79273517758469
O         4.50373678048020   -6.06509859549602    0.21150913077127
O         3.33632805557157   -7.48354528370008    1.32728482571247
C         1.24619405710591   -5.79943078138678    1.54845308435649
C         0.19645728586037   -4.90470567889323    1.59110854531131
N        -2.59177043641527   -0.91263688976426    0.92137604381683
C        -3.44239368674759    0.07952885108899    0.74362001326280
Br       -2.93396038148418    1.84121530935492    1.16470100600467
H        -7.42641069176079    0.31981120044024    0.27223673637460
H        -6.82105956566965    0.58019332505117   -1.39440833129752
H        -7.17056141249785    1.97346242453068   -0.34070107664125
H        -6.12864983553795   -1.56838030447010   -0.52584475821426
H        -4.50105945472570   -3.41334620522439   -0.29394795003842
H        -2.11164149415770   -4.14745421624142    0.22151833617502
H         1.53560735645284   -2.38294281893618   -0.24443611464998
H         3.43023714335565   -4.00741869251399   -0.33284592590522
H         1.18700310560323   -6.75723673386767    2.04203644448320
H        -0.70355486110144   -5.14832992421671    2.13363889909234
Cl       -0.11144413730543   -0.23509661671920   -0.64707106061949
