64
 energy: -111.283670035496 gnorm: 0.000710297960 xtb: 6.4.1 (afa7bdf)
Ir       -0.73129343212985   -0.85066073952470    1.40062879259081
C        -2.14119295273486    1.03689066420475    3.91938974016244
C        -0.94654871912005    0.35763874190295    3.34883398943440
C        -0.57664798414614   -1.00507686217641    3.62137761495448
C        -1.29462304582215   -1.90867567262195    4.56432482434978
C         0.73993464926939   -1.22377880661535    3.08199206810082
C         1.62173694367878   -2.38102435542412    3.39302079297499
C         1.12090838996800   -0.05765518741172    2.36009176863909
C         2.47228710824820    0.20780807967421    1.79519843603585
C         0.06824477293311    0.93566699261560    2.53388573866699
C         0.22103927811157    2.36580276664381    2.21573555165041
C         0.17303744802750    3.29478812525598    3.25409116453872
C         0.37623087383439    4.63147290387273    2.96853524603398
F         0.33552219500906    5.52221357167425    3.98030239020231
C         0.62056491961726    5.09161212924894    1.68690715052312
C         0.65503411804308    4.14506363264541    0.67752859152593
F         0.88405549311985    4.55840597068948   -0.58496861244293
C         0.46245238020632    2.79694116519581    0.91310473624912
H        -2.28646716829598    2.02017633103183    3.48272787025826
H        -2.00018764092206    1.14683569655472    4.99508228666022
H        -3.04129994318435    0.44519111035581    3.76863963193866
H        -1.05637230057755   -2.94992125484314    4.36804001612763
H        -0.98704464471662   -1.67806406394461    5.58492358593177
H        -2.36993775681215   -1.76865350008396    4.49712915138625
H         2.14102065920805   -2.17287805591811    4.32947865786175
H         1.05412180984392   -3.29846011531383    3.51999549279575
H         2.36904172809381   -2.52873153008310    2.61936980117253
H         2.86827186336522   -0.67194531826381    1.29494872053529
H         2.44682091022026    1.03285252925885    1.09004448812076
H         3.15034908111118    0.46809716526109    2.60867011154595
H         0.00877708704332    2.98814684135047    4.27389829434946
H         0.77733284279227    6.13781699017374    1.48404134135446
H         0.47861114850460    2.09969215303480    0.08906555901305
Cl       -6.38079474522837    3.65194646575253    0.12923712541284
C        -5.32808833690161    2.29062481239969    0.29414203812621
C        -3.97814931607771    2.50828277871466    0.62679269366076
C        -3.12585646516788    1.45003087324073    0.77508308022833
C        -3.57321774929936    0.12685073962110    0.58518495644538
N        -2.72363096367381   -0.91705897182378    0.73277427460201
C        -3.13526719044006   -2.15020291042741    0.39356146925654
C        -2.10534634954478   -3.14108753423511    0.41205661579873
N        -0.91794891509538   -2.75096234568099    0.75776641787645
C         0.15535087825823   -3.65013689670529    0.72827965054950
C         0.03388375682897   -4.93718548950469    1.25625843847271
C         1.10533426852847   -5.80820805471936    1.21249426614742
C         2.29474917507683   -5.40067429056088    0.62448439151019
Br        3.78084000790182   -6.61402296984700    0.55226083206581
C         2.42664361898735   -4.12507284097814    0.09107126438260
C         1.36289451266023   -3.24738776680121    0.15472808783285
C        -4.46009716644265   -2.42621472603371   -0.00006480951303
C        -5.36299639834028   -1.40376282149935   -0.06101225858346
C        -4.93277460312585   -0.08372287306615    0.20430940120290
C        -5.79745474399926    1.01894222813565    0.08178490414466
H        -3.62480023596641    3.51824563664280    0.75597709267150
H        -2.08322283028144    1.62081435874404    0.99038414370048
H        -2.29764744377441   -4.15260424220496    0.07402925247516
H        -0.88744122757337   -5.24561949478177    1.72570749522694
H         1.01931412921739   -6.79847027547511    1.63032861614984
H         3.35330417420261   -3.82374550804546   -0.36993605135506
H         1.43923091784456   -2.25874694609800   -0.27203765811065
H        -4.73529073190891   -3.44016446259697   -0.23954719690006
H        -6.39202583373025   -1.58017210085888   -0.33253789721503
H        -6.82561280158630    0.85175926020341   -0.19638785665057
Cl       -0.21115550313640   -0.20386072991379   -0.83080077286297
