76
 energy: -126.993722130554 gnorm: 0.000452802929 xtb: 6.4.1 (afa7bdf)
Ir       -0.36726864381415   -1.08119643606700    1.34297976888620
C        -1.65392679059639    0.48409754584382    4.05758383059753
C        -0.45545545341585    0.05485719406897    3.28531102193039
C         0.28368471499561   -1.14376550348440    3.52325687794532
C         0.01646074255087   -2.09088040205273    4.64110970448855
C         1.44131762690900   -1.13167449117188    2.66534307927807
C         2.58114244609912   -2.09173478973535    2.72416078823238
C         1.44795544404333    0.10660380452040    1.94557100574484
C         2.57578038015090    0.62118605120429    1.12655036248103
C         0.24443917594780    0.81999928108102    2.28286576581110
C        -0.05082920594164    2.20470235718930    1.88387341699443
C        -0.22442786943208    3.18590687487444    2.85809449931470
C        -0.46149362113316    4.48936392685983    2.46307474409438
F        -0.61970865445196    5.43333045871337    3.41132153082145
C        -0.54751593324910    4.86207811435078    1.13316080948647
C        -0.37447154595095    3.86350138514626    0.19022029212401
F        -0.46712375129923    4.18662899075367   -1.11564808727979
C        -0.12688904862335    2.54805387443480    0.53450353439011
H        -2.16224144079856    1.31182641470802    3.57188935150202
H        -1.34027804028052    0.80688633305617    5.05103117425938
H        -2.35065877848756   -0.34038901784157    4.18847718234465
H         0.67513666437406   -2.95136500470227    4.59067663546394
H         0.20140076886304   -1.57471403618299    5.58399296308720
H        -1.01949604054496   -2.42175774608484    4.64801234767833
H         3.20932209487830   -1.85225515558740    3.58262347371221
H         2.22890051609181   -3.11498216568225    2.83060835793372
H         3.18409398960235   -2.02574573087944    1.82364196889602
H         2.72119573042029    0.01411661773709    0.23450997631393
H         2.39176290850299    1.64601643584540    0.81704967996779
H         3.49316346527290    0.58092095668345    1.71220142355676
H        -0.14736358220663    2.95461709530338    3.90745781127728
H        -0.73423977824751    5.88292200191372    0.84485474191107
H        -0.00461179328033    1.80069100733822   -0.23498863954429
C         3.50216388861883   -7.51091677685680   -6.15202519129889
O         4.15876453933732   -7.43285034870387   -4.90433730433394
C         3.47147736625631   -6.96037625164492   -3.83036037621928
C         2.14715304574904   -6.53280674890320   -3.85004157910785
C         1.55200878393738   -6.07086850106907   -2.69031075861738
C         2.24514704911393   -6.02963574419446   -1.48445399572696
C         1.59458124181470   -5.55916281385817   -0.25423251505701
C         1.84769028232573   -6.17778476451159    0.97165132727327
C         1.21531516545889   -5.74871325535235    2.12468712919995
C         0.33074123683816   -4.68463597048770    2.08873919208197
C         0.07278309307331   -4.05864088699810    0.87220779669625
N        -0.83759903848791   -2.98527182123519    0.80494275294494
C        -1.92541213422616   -3.12767623967334    0.12000234094906
C        -2.77303034236014   -1.98262620725578   -0.01165054156324
C        -3.97192444927958   -1.96815454597757   -0.73089889553806
C        -4.66941904445216   -0.78871661627686   -0.83365046001196
Br       -6.30285120409777   -0.68001754018910   -1.79340366378939
C        -4.16825530853736    0.38343554510750   -0.22102381235199
O        -4.88234619098140    1.49135140492381   -0.36645777386507
C        -4.42495215008678    2.71241687614493    0.19310824222556
C        -2.97349148703116    0.27011663844575    0.49409502651370
N        -2.30084475413662   -0.87202044779234    0.59910867638295
C         0.69326840596122   -4.49923232354544   -0.29213601629155
C         3.57303349499125   -6.46157814465029   -1.47462265396402
C         4.17803703671858   -6.91354778409883   -2.62519094231598
H         2.64163975708664   -8.18538711803048   -6.10802818704226
H         4.23955462331993   -7.91136621259891   -6.84532521932955
H         3.17978153186531   -6.52349023539139   -6.49571429548055
H         1.56996675913811   -6.55880506197251   -4.76065562731122
H         0.51806779089237   -5.76285315647840   -2.72765277375332
H         2.52380441309168   -7.01719975745953    1.01256732934980
H         1.40707196574337   -6.25305659534324    3.05924622035724
H        -0.19400948972417   -4.36718750408190    2.97415011543773
H        -2.18378821851088   -4.07175748337150   -0.34519314767475
H        -4.33057497583533   -2.86711794151424   -1.20490575425449
H        -3.44951634934846    2.98818985425639   -0.21322740356671
H        -5.16451789070884    3.45543181676432   -0.09718411178260
H        -4.37748398787345    2.64838313794527    1.28190387867938
H        -2.54592926808450    1.12978090131488    0.98679479414075
H         0.49973285393384   -3.97880168540766   -1.21713796819694
H         4.14580350085593   -6.42247657281181   -0.56069385232706
H         5.20551901125211   -7.24154728435214   -2.62251758630177
Cl        0.23962074951354   -0.85230707487389   -0.94306480888224
