59
 energy: -95.972404767390 gnorm: 0.000258967196 xtb: 6.4.1 (afa7bdf)
Ir       -0.62722776152130   -1.13991055652800    1.08318586778250
C        -1.57960843849859    1.06079899874012    3.63506172729315
C        -0.54428089868630    0.28925833236813    2.89705740133527
C        -0.14716673622014   -1.05086042606292    3.25505740394714
C        -0.70035224004124   -1.82524291656937    4.40291418821100
C         1.06393324316769   -1.36057010011878    2.54520067953683
C         1.98245304669642   -2.48762199196943    2.86261581759223
C         1.32913470270788   -0.27816818262972    1.65002797172756
C         2.54623293124252   -0.09158710819509    0.81476992096175
C         0.32916970424424    0.75002531615315    1.87474413391830
C         0.42717290440566    2.12510264485349    1.30688905369003
H        -1.23103085940612    1.20623560651254    4.65811262967616
H        -2.52303008809107    0.52184711364278    3.68337060349458
H        -1.75305239420331    2.03215136452178    3.18517251114419
H        -1.76861362545541   -1.65907302089190    4.50928425732726
H        -0.51520809346958   -2.88909190278236    4.28335168640592
H        -0.21379392889360   -1.49890246258883    5.32286874697323
H         1.43977182292687   -3.38579361193205    3.14381735398527
H         2.63266752572829   -2.71849821600550    2.02474527103111
H         2.60482391326609   -2.18909473679075    3.70713532527094
H         2.29412136489344    0.38844460699531   -0.12766267211466
H         3.03552108382826   -1.03844400068559    0.60718711734652
H         3.24678847029604    0.55381047495710    1.34590812076523
H        -0.42899103501880    2.73284414263688    1.57998779041756
H         0.49153952119207    2.08794575513877    0.22159124130116
H         1.33309973346492    2.60203159176399    1.68063264867414
C         4.50934091888826   -5.25534806797637   -0.88396812451426
O         3.41969494600022   -4.35463179174333   -0.78562057911105
C         2.34161521030789   -4.70299575707490   -0.05994647780464
C         2.21902528710297   -5.89108693232777    0.66185965532764
C         1.05833088611230   -6.13434397691343    1.38015916718034
Cl        0.92072103268746   -7.61299247743934    2.28077613540849
C         0.00785094686062   -5.23591688261778    1.39722604569468
C         0.13933075599021   -4.04662790407473    0.67649758361360
N        -0.90357921372014   -3.10886991667123    0.65813604426710
C        -2.10809610255133   -3.50465318812371    0.39968007166633
C        -3.12997923696627   -2.51242201599127    0.30380930028713
C        -4.42882640106770   -2.78396134635677   -0.12598596401045
C        -5.32056022015319   -1.75137800904910   -0.32681127331914
C        -4.88337412370648   -0.43903785507442   -0.12349375659794
O        -5.59131101149947    0.67062424743470   -0.30111287033374
C        -6.94305636179695    0.58418676568790   -0.72868334467444
C        -3.55667277789496   -0.25580667815006    0.32182526042765
Br       -3.00124425073541    1.51842185785907    0.54061713527980
N        -2.71462170342688   -1.24263975860704    0.56648406072257
C         1.29568025944540   -3.77590357806288   -0.03775051203024
H         4.96299677156646   -5.43604463988201    0.09377814830591
H         5.23044402443751   -4.76551159437165   -1.53480558477754
H         4.20035405798883   -6.20321472782135   -1.33123174542745
H         3.00731702200512   -6.62413339768386    0.67512327170471
H        -0.87885897490016   -5.43870504968420    1.97407270707762
H        -2.33147242833282   -4.54201436165322    0.17728516018820
H        -4.72180352150678   -3.80401397255525   -0.31278441175294
H        -6.32520606494661   -1.95435440599068   -0.65939412871368
H        -7.01309438282859    0.11612532545590   -1.71281582383465
H        -7.28925578782267    1.61357245610295   -0.78760782220451
H        -7.54690338331042    0.03338011907584   -0.00462773120381
H         1.38097137924808   -2.86476222045926   -0.60819963543607
Cl       -0.41353542002904   -0.68672697977808   -1.25542275912975
