62
 energy: -104.862629761181 gnorm: 0.000451001558 xtb: 6.4.1 (afa7bdf)
Ir       -0.48384223654196   -0.55474446687727    1.40584440665229
C        -1.80004449619969    1.34689266394862    4.02057591520072
C        -0.63480172707125    0.70865600832691    3.35482875703782
C        -0.19744236387530   -0.63766509661152    3.62031401050218
C        -0.80877191539519   -1.54371904136006    4.63455913112593
C         1.08243515246564   -0.81817842624089    2.99534354893100
C         2.04509047800867   -1.91659778312758    3.28137296303134
C         1.36141454553037    0.35115362699773    2.22084556932044
C         2.66537513969071    0.64816742357882    1.56655674036510
C         0.29259071169699    1.30944179751147    2.46199386214597
C         0.34774404139481    2.72833332632573    2.08044823889751
C         0.28530247200118    3.70525244877892    3.07274253293395
C         0.38368912164369    5.03566946352350    2.71295428277382
F         0.32693697889960    5.97339918873557    3.68227498388224
C         0.54235229845533    5.44516874812733    1.40148152113455
C         0.59972493808055    4.45092428462777    0.44073312259898
F         0.75321242619095    4.81183911374236   -0.85103425174314
C         0.50921345511458    3.10815379906472    0.75029653860690
H        -1.99946358719883    2.33180566533134    3.61174260438461
H        -1.58295144623109    1.44171573159913    5.08517864385338
H        -2.69475626410183    0.73534730587907    3.92634333173639
H        -0.54798874869446   -2.58014145129719    4.44113576702845
H        -0.43321543020640   -1.27865697516795    5.62346603309160
H        -1.89037885079514   -1.44401231709512    4.64792624437899
H         2.62742555660574   -1.63618554098399    4.16006223877088
H         1.53778811937145   -2.85244342656229    3.49700900642039
H         2.73230253723372   -2.06755802675171    2.45453304634612
H         3.00016161253465   -0.19032043846292    0.96083366045924
H         2.59641202587469    1.53097006043699    0.93856659143208
H         3.41557203581604    0.82641587257168    2.33757793722496
H         0.18687209872460    3.44381294982892    4.11334009178214
H         0.61695762787832    6.48746127871184    1.14027869460271
H         0.53118785944360    2.37326405896387   -0.03917661111679
C        -6.82605142651832    0.95125807636288   -0.46821684630165
O        -5.48046241740738    1.08665341429207   -0.03046411742607
C        -4.72411818892343    0.00687623313985    0.11528578373213
C        -5.10084639133262   -1.31781123150497   -0.12806351573517
C        -4.16492419033524   -2.31815701883674    0.03654072514472
C        -2.87998095961615   -2.00291422657775    0.47546338092272
C        -1.80233935355330   -2.93853103429491    0.53987524241743
N        -0.62715056943734   -2.48596643719966    0.84011096859529
C         0.47865827050879   -3.34995692052388    0.81242170887927
C         1.63533215085801   -2.94440305120441    0.14721839885843
C         2.71947929318111   -3.79896999194016    0.07412090919156
C         2.66918438486834   -5.04624811249940    0.67908122417193
C         1.52484453216678   -5.44268378377107    1.35490786450717
C         0.42643116020388   -4.60523377251318    1.41915784484705
N        -2.52610394834364   -0.72427067899852    0.78018924081596
C        -3.40488747583093    0.23628076008879    0.56671027061768
Br       -2.90661254874642    2.03410101697360    0.82915818231773
H        -7.40742281658412    0.35371059773323    0.23670552060824
H        -7.21819233554202    1.96514451966442   -0.49977826444861
H        -6.86989532679570    0.50927673868578   -1.46573585836158
H        -6.09671160133723   -1.55453303314493   -0.46516470212536
H        -4.41529814912008   -3.34313908854184   -0.18321965312242
H        -1.95578310530660   -3.97409286990929    0.25879037023835
H         1.64854400156521   -1.97965680189983   -0.33616604128273
H         3.60659773664610   -3.49131012665279   -0.45762082620359
H         3.52024572849075   -5.70662558499928    0.62528146869451
H         1.48659268432715   -6.40961582085756    1.83179020358734
H        -0.46008491402305   -4.90619605995885    1.95630187135321
Cl       -0.14488539040836    0.02214846281456   -0.88689450828780
