88
 energy: -121.101332284813 gnorm: 0.000603296618 xtb: 6.4.1 (afa7bdf)
Ir       -1.32401648960795   -1.35146163523151    1.62633465328035
C        -2.31183090020086    0.76842467243204    3.36884737234039
C        -0.90832261389802    0.21052308401912    3.30963263050761
C        -0.60214394967257   -1.22320511360121    3.56312299355066
C        -1.60307516512468   -2.09685785692586    4.27962015832367
C         0.83104443430473   -1.28776106629344    3.83277312898741
C         1.59347122851405   -2.53192165374429    4.12375111875807
C         1.35054389531812   -0.02723508755396    3.71646722106010
C         2.78492264949971    0.34718743300831    3.83859342128631
C         0.28628066617929    0.91130073404131    3.42834883113528
C         0.54696322984844    2.37739195933878    3.31331793693903
C         0.23892466408210    2.90963129145202    1.90975507241196
C         0.66401701115968    4.36987660864072    1.80269636068973
C        -0.05476531906599    5.21501593012489    2.85142286070885
C         0.21077282128095    4.67272332306537    4.25401989891579
C        -0.21425148873940    3.21032260911935    4.35559795672443
H        -3.05926397066064    0.07175980009836    2.97394690479251
H        -2.38933987110622    1.69747204801868    2.80962447478012
H        -2.58201761074870    0.97036806583288    4.40716943908111
H        -1.20393962798640   -3.09190598781515    4.45469449147445
H        -1.84848942158551   -1.65222669626198    5.24470150530867
H        -2.54601835932194   -2.18982031170528    3.72351889272412
H         2.34399968561063   -2.34022969531394    4.88699793717000
H         0.94509769993153   -3.32645223959970    4.48034080360631
H         2.11185361052474   -2.87105218316754    3.22664848043888
H         3.39946122445106   -0.53253050587712    3.99882164571506
H         3.12251875220811    0.83688093943995    2.92627823806552
H         2.93823679593430    1.03484167060221    4.67010212542164
H         1.61315668107145    2.53927393913724    3.49409580596202
H        -0.83023069345505    2.83091287643342    1.71345536746502
H         0.76432278415913    2.30661695458295    1.16734351791401
H         0.43726155435375    4.74673798388550    0.80415340535388
H         1.74341818116794    4.45019759936196    1.95123166852178
H        -1.13081951016523    5.20266017849097    2.65464306444281
H         0.28119899153314    6.25279398835819    2.78889842903989
H        -0.33548606194993    5.26696000706578    4.99017852173978
H         1.27613750496024    4.76308095170083    4.47976769481014
H        -1.28847565617960    3.14429340819754    4.18698138697282
H        -0.00226965482263    2.82980704784314    5.35686645080712
C         4.80877037695026   -6.17558539196276    1.44850056341297
C         4.02309151395758   -6.44935534347978    0.16982103319356
C         2.99664881118231   -5.36291553668270   -0.15805653393722
C         1.84539495939901   -5.30068662649431    0.84512625333801
C         0.79597823766948   -4.28012490576800    0.41145774374628
C        -0.34473017036044   -4.19538614742705    1.43778313378143
N        -1.33187232586518   -3.22824276112578    1.01767821020486
C        -2.25003089160159   -3.60513761586548    0.19740753320886
C        -3.19251310839743   -2.64223486278452   -0.30937972848362
C        -4.30982575483788   -3.00335702395917   -1.05630378454526
C        -5.18857121524348   -2.00878104490843   -1.45612493061797
C        -4.90192891966059   -0.69726041949619   -1.12395760263903
C        -3.73669902205134   -0.40278050489067   -0.40777020059560
C        -3.38364128509603    1.00727107418204   -0.18459603438350
C        -4.32356881130784    1.89617457414304    0.33686068199378
C        -4.03296793271613    3.24279356249274    0.41227984500299
C        -2.81642535879817    3.72439530943582   -0.06959640123071
C        -2.57814801391642    5.18975467087845   -0.02701144776156
O        -3.29768536133715    5.97415601581553    0.55253669514586
O        -1.48871184002393    5.55289227967777   -0.70693830769671
C        -1.18239841817662    6.94378321733816   -0.73310510912565
C        -1.87102378193323    2.83454125158227   -0.57574488343984
C        -2.14403457796005    1.47983613704009   -0.61173424538989
N        -2.91504489268889   -1.36054849266659    0.01152974154044
H         5.57497397057056   -6.93569408284640    1.58699090542922
H         5.29788118621722   -5.20516802055687    1.39441823996096
H         4.15991427214277   -6.19182295454641    2.32004297596974
H         4.72598818303193   -6.52289421388704   -0.66401324410811
H         3.51657118438840   -7.41383921296178    0.25591309939572
H         3.49789415408043   -4.39397748823861   -0.19508582568166
H         2.59024591296538   -5.56154671202428   -1.15244361948654
H         2.23323040939058   -5.02767844090916    1.82634443188831
H         1.38942796990063   -6.28974904224771    0.92702439383715
H         0.38648622977329   -4.56281774453481   -0.55948489699884
H         1.25366275946086   -3.29597212524949    0.30970373400269
H         0.06829927910061   -3.88542373199603    2.39636087363348
H        -0.81120496839924   -5.17923998226440    1.54499441445477
H        -2.33113425183027   -4.64040921939196   -0.11747706525687
H        -4.48450725194289   -4.03820482081835   -1.30064572847780
H        -6.07358220589582   -2.25097373900846   -2.02324174397579
H        -5.54594162434555    0.10937352430364   -1.43467958491343
H        -5.27594545483383    1.53038151562920    0.69017037689959
H        -4.74389792681803    3.94559697975018    0.81959775149963
H        -0.23222511841408    7.03266270854110   -1.25244289201682
H        -1.10767604620361    7.33120832602360    0.28472697973133
H        -1.96354223338328    7.49198040126571   -1.26288075960959
H        -0.92869657098113    3.20885844734913   -0.94050918804353
H        -1.41328424589232    0.79005611151252   -1.00463137113552
Cl        0.56260646902312   -0.75801096905900    0.48701565115218
