68
 energy: -118.968005532087 gnorm: 0.000938665515 xtb: 6.4.1 (afa7bdf)
Ir       -0.63078622642370   -0.64055040226003    1.63395253095123
C        -2.01204927910314    1.27532585304433    4.09701927584594
C        -0.79439600466618    0.69076657510956    3.47198488810956
C        -0.20800732074591   -0.57264617081662    3.82451443394964
C        -0.68023122774431   -1.46024954390379    4.92333477656669
C         1.06408534413757   -0.67654627621313    3.15204530086170
C         2.10492793064290   -1.69471334965928    3.46214522441174
C         1.20730078426773    0.45125205017451    2.29978017920995
C         2.43225828617959    0.84829457048485    1.55379215394848
C         0.03809526519482    1.30451969742433    2.49029742745657
C        -0.05960509403906    2.70009010152970    2.02713950320333
C        -0.12096283409956    3.71948256315494    2.97628152702843
C        -0.16015942764363    5.03295050150334    2.54827261351323
F        -0.21412755853892    6.01277176448889    3.47383105964324
C        -0.14967851669358    5.38240204727480    1.20974006761958
C        -0.09597885492652    4.34634782680346    0.29372180943018
F        -0.08628386491117    4.64836218725145   -1.02031075416241
C        -0.04873913637095    3.01812597878622    0.67208353196607
H        -2.33902678935006    2.16335837652960    3.56342450293086
H        -1.77823384225246    1.55658615929632    5.12422541506724
H        -2.82589312947200    0.55456990452853    4.13544596521742
H        -0.37654745587879   -2.48931259655326    4.75484142044724
H        -0.23662818171972   -1.12767289426365    5.86256786497482
H        -1.76051266071335   -1.41725005129314    5.02603770325014
H         2.63476482854899   -1.38230115380389    4.36252310835683
H         1.66429612857520   -2.67005769724646    3.65031706232469
H         2.82820791675777   -1.78285900761117    2.65766554208083
H         3.04265559821198   -0.01574934342936    1.30714391775732
H         2.18012295279470    1.37560209330856    0.63802064849294
H         3.02357637926154    1.51963151467836    2.17792085842989
H        -0.11342018822850    3.50525656312532    4.03244630052202
H        -0.17952618685196    6.41243244416530    0.89575325781001
H        -0.02818609227731    2.24535471629689   -0.08050974691716
C        -8.16810930494065   -3.11572058985107   -0.98471045495686
O        -6.85211420378921   -2.79155987340756   -0.53306308232585
C        -6.62068840404487   -1.53298372373513   -0.18933456354742
O        -7.43716039989179   -0.64423102244990   -0.22202084869925
C        -5.20709338796571   -1.32869963051986    0.26723882925917
C        -4.81414291094857   -0.06034855122999    0.70169244588699
C        -3.51579797479451    0.13347592983469    1.13369053461713
N        -2.61838465409633   -0.84930260011594    1.15840497213460
C        -2.97913777242554   -2.08016138814399    0.71418328190083
C        -1.90188866949431   -3.02686426132602    0.71124321589673
N        -0.74621560361919   -2.58815583720042    1.09549903004807
C         0.37149172043557   -3.43610826455461    1.08372097815626
C         1.55327551874187   -2.97326558306578    0.50333068890505
C         2.63294475806359   -3.83116857512072    0.48081940872904
F         3.78154787029515   -3.40587340908732   -0.08337070638663
C         2.60455033182265   -5.10254291823700    1.02721159553786
C         1.42219110080603   -5.54943295466157    1.61857348991906
O         1.25601797148135   -6.75217741442713    2.19047537145346
C         2.33604871655245   -7.67112957582836    2.19635272311641
C         0.30395881605910   -4.70765404030188    1.63567560721347
C        -4.27119120433097   -2.35263011639545    0.26631985859205
H        -8.32387131784940   -2.72173127028980   -1.99013728829697
H        -8.22588692950743   -4.20045888575063   -0.98574126278926
H        -8.91376677793607   -2.68435996955173   -0.31539542921393
H        -5.52634677942516    0.74967770344242    0.69642854668821
H        -3.18450352604462    1.10580689508588    1.46652755170195
H        -2.04118990841625   -4.03964377687884    0.35196911722903
H         1.60364916628132   -1.99868497151264    0.04600706034351
H         3.49267282914088   -5.70956711009720    0.97790586047878
H         1.95807027774930   -8.55733578297505    2.70132050517497
H         2.63844216662920   -7.93188350117799    1.17928242985570
H         3.19091555903716   -7.27314945804277    2.74821492046975
H        -0.59613499593691   -5.06242904025871    2.11056308589755
H        -4.53120611448345   -3.33970613983472   -0.07980284267317
Cl       -0.36210750503088   -0.18469129425532   -0.69759800068406
