75
 energy: -125.521940052472 gnorm: 0.000669565374 xtb: 6.4.1 (afa7bdf)
Ir       -0.80070543308844   -0.72691396503371    1.40806839812428
C        -2.03517822738245    1.04961135971427    4.03406605107639
C        -0.85105063538345    0.45428445357567    3.35462238416829
C        -0.35407425219092   -0.86890765520719    3.59237165679078
C        -0.88073041815381   -1.81409746720459    4.61753798921441
C         0.89469115586814   -1.00934859721245    2.88479859390969
C         1.87775866150455   -2.11231355572813    3.07159825773468
C         1.12516962231767    0.18323727306465    2.14834561318643
C         2.36500696577357    0.52482319555992    1.39655288889936
C         0.03078321025658    1.09821790705618    2.42759326075883
C         0.06106472957695    2.52796940699647    2.08640608405399
C        -0.10168404300801    3.48220345158989    3.09022236947080
C        -0.01596859931350    4.82211417505535    2.76361643648516
F        -0.17109572175102    5.73688666478960    3.74315610029471
C         0.22123569711744    5.26361466934897    1.47411965117880
C         0.37992065629615    4.29242700459097    0.49999334285283
F         0.60965134325071    4.68628099433518   -0.76875070062949
C         0.30859263609441    2.94091451001078    0.77682407981385
H        -2.36297424437553    1.95734147043628    3.53636287589465
H        -1.77114481989724    1.28732296540730    5.06516368454650
H        -2.86279329330640    0.34476428293130    4.06450186932459
H        -0.61235758270678   -2.83978863802661    4.37981726383028
H        -0.44605161204406   -1.56781572475937    5.58714863086066
H        -1.96112197968946   -1.73915177787373    4.70435327261445
H         2.53862117811302   -1.85092368362834    3.89914224845262
H         1.38609233669915   -3.04983731268966    3.31461975959701
H         2.48149690258280   -2.25351767381340    2.18027927613103
H         2.26215589917221    0.27731515900273    0.34044722262871
H         2.56184971956835    1.59228338932251    1.46794551570163
H         3.21261147995010   -0.02585366940101    1.79515729507298
H        -0.26098787930074    3.19829091597937    4.11684399190492
H         0.28525922054497    6.31311702843284    1.24027277411470
H         0.41590174093172    2.22189705118396   -0.02061098509216
C        -6.95710902177406    5.86446327939658    0.24512069044918
C        -5.74498857707546    4.96453032762865    0.42561857526630
O        -6.18786498363892    3.61594899740251    0.30152779308290
C        -5.32760871625405    2.60284804966056    0.43695786606952
C        -3.94315609805188    2.74994307054504    0.69229700827383
C        -3.13780251931403    1.65602396412256    0.83722931586949
C        -3.64434083561315    0.34780492782087    0.72333157722891
N        -2.83456573201576   -0.72483248796618    0.86697912946373
C        -3.32142812533009   -1.94985340455575    0.60677932576449
C        -2.34627110082635   -2.99213353336645    0.62383803690931
N        -1.12381766949602   -2.65655125508514    0.89071081358490
C        -0.11351712747268   -3.62936135919436    0.86579101066763
C        -0.30411944703825   -4.86046584224774    1.49896360868441
C         0.72120274173930   -5.78099366231467    1.42702979107443
F         0.56124167159493   -6.97062854281853    2.04408292253123
C         1.90703949659725   -5.54675485976065    0.75377386571656
C         2.08438559747181   -4.31522122576625    0.12174689682510
O         3.18351836763386   -3.95557272173373   -0.56159847440624
C         4.24012616738603   -4.88789362636556   -0.71291997392680
C         1.06904466945272   -3.35564791465174    0.19588873335327
C        -4.67824466756012   -2.17614028944843    0.29059224880638
C        -5.53443655499061   -1.11756609345326    0.22476508520173
C        -5.03431165500329    0.19253770138954    0.41629396095731
C        -5.84438983076297    1.32278446140760    0.29768650444277
H        -7.70232309577954    5.64587816773696    1.00460997116034
H        -6.65522999779578    6.90393350283248    0.33165187755370
H        -7.40045988888324    5.70396178011825   -0.73343462292505
H        -4.99318282075388    5.18047846194834   -0.34342283267275
H        -5.30247271767243    5.11944552929766    1.41716319058142
H        -3.50651484458350    3.73263297544989    0.76404567814700
H        -2.07993746580836    1.78818875456623    0.99151257842496
H        -2.61192296486231   -4.00795778130150    0.35507094703654
H        -1.20290343646093   -5.08745763883918    2.04768572900139
H         2.65604263177892   -6.32022796206384    0.73684451038725
H         4.66412618958631   -5.16700646574344    0.25476330628840
H         3.90502379918580   -5.78225162488004   -1.24359517185054
H         4.99426210186971   -4.37569485279606   -1.30571662544490
H         1.20015432770043   -2.41170324853233   -0.30873808533393
H        -5.00910528865215   -3.18542125874811    0.11005483515416
H        -6.58147476431165   -1.25530003164947    0.00546350611046
H        -6.89313268186887    1.20922899673770    0.07517473552395
Cl       -0.37454854636645   -0.21692687254188   -0.87077699202897
