72
 energy: -110.027064746763 gnorm: 0.000421431023 xtb: 6.4.1 (afa7bdf)
Ir       -0.33907038116294   -1.11208192065887    1.34806527960907
C        -1.79037963276199    0.91427673881029    3.71540657546744
C        -0.58583234590211    0.23672851753571    3.15900007087045
C        -0.18185300703494   -1.08383901360891    3.57460811786494
C        -0.87441600401806   -1.90407080863196    4.60742545482564
C         1.13565513006385   -1.33339062410645    3.05638667446445
C         2.01245813580544   -2.46585600556631    3.46259487355448
C         1.49490862297267   -0.22827733932419    2.23268488811961
C         2.82597524094456    0.00301262257316    1.60277773488472
C         0.42015901900672    0.75808610320565    2.29416776091768
C         0.57525654913623    2.15713968754796    1.76161677249903
C        -0.57960129895640    2.65013598467424    0.88265109900026
C        -0.25085476024402    4.03479385317840    0.33026077154203
C        -0.00049502558296    5.02097063628986    1.46883178460811
C         1.12971171961364    4.52550179660498    2.36731353096706
C         0.81028829037037    3.13961355427205    2.92110463294574
H        -2.65971092180887    0.26031370264459    3.68962776323881
H        -2.02215717501783    1.83618339623362    3.19493555852051
H        -1.59349699839078    1.15347249584661    4.76147142140992
H        -0.62084359697600   -2.95586430386149    4.51017157315447
H        -0.55810830006809   -1.57152952054788    5.59686417630820
H        -1.95310561593236   -1.79261761419888    4.54500473681096
H         1.43827833182955   -3.37256245148390    3.63255867083051
H         2.77405260280341   -2.66989387430255    2.71633076998500
H         2.50957805498981   -2.19960101945660    4.39624550948681
H         3.42517680083517   -0.90195656337138    1.61324139806265
H         2.71465094888496    0.33822207714448    0.57351607966051
H         3.35744550161357    0.77640827511492    2.15729675372101
H         1.47032014719080    2.16761349580228    1.13265935598252
H        -1.50357934379881    2.72164204858471    1.45658151208994
H        -0.73002725806117    1.94884781339725    0.06027358308386
H        -1.07566419212344    4.38813879760171   -0.29167090408011
H         0.63780617943749    3.97584419625577   -0.30184446222174
H        -0.91242291120951    5.13575436864618    2.05979415068541
H         0.25335782185994    6.00126487895625    1.06063044253901
H         1.28140402869449    5.22317066131699    3.19328971463844
H         2.05693124464032    4.48602002270846    1.79104130177160
H        -0.08022734146332    3.19852937506113    3.54706490974488
H         1.63612910536445    2.78834458888290    3.54220331393836
C         5.20220038088356   -6.34481126151381    0.45159625758733
C         3.82642676528767   -6.69585937640590    0.90249647291785
C         3.52707661204578   -7.92519821237007    1.38497831718105
C         2.20270210894563   -8.30074366272425    1.82832476495385
O         1.88679840557025   -9.38559375365929    2.26561350679733
O         1.22748872483157   -7.34255950315154    1.74640280946483
C         1.48479768136750   -6.10706872045802    1.26296766706800
C         0.41081620330034   -5.22175006089042    1.20701763937135
C         0.60869099661959   -3.93118164630023    0.73577835944212
N        -0.45585818409666   -3.02428194458633    0.66693822805636
C        -1.56628703013466   -3.37708719005374    0.09612616748549
C        -2.60264002837849   -2.39522310446460    0.03428304679147
C        -3.82093964739166   -2.56832655836049   -0.63025852848682
C        -4.72547792082170   -1.52879237061219   -0.67015771963777
C        -4.37688927794543   -0.33278854871196   -0.04191358101397
Br       -5.56265222890994    1.15317909907068   -0.04829013832416
C        -3.15409507592302   -0.22078093307920    0.60515623809104
N        -2.28856378195996   -1.22523064918892    0.64956803148677
C         1.88064935202968   -3.52543368581911    0.31200057859912
C         2.93108310554471   -4.41068997338420    0.34778164471560
C         2.76392775644089   -5.71747186118334    0.82871635172287
H         5.87009919651604   -7.19116441090069    0.58050785856046
H         5.58744434268353   -5.50340351035320    1.02464820919808
H         5.19286914146088   -6.06424531576339   -0.60038398593793
H         4.27214109062433   -8.70065031778724    1.46484762258908
H        -0.55354484357814   -5.55355387814437    1.55703958229371
H        -1.68837924477820   -4.35264501927844   -0.35944177570618
H        -4.03556917103409   -3.50744324421990   -1.11427942005884
H        -5.67280896486663   -1.62888815630170   -1.17598427899866
H        -2.87287373587782    0.70258646666510    1.08824224143211
H         2.00525086200246   -2.52732199930125   -0.07892977213502
H         3.90030152580137   -4.09788332282585   -0.00341125790551
Cl        0.18520851825094   -0.51245600373313   -0.89985348912583
