64
 energy: -94.176423779052 gnorm: 0.000232840205 xtb: 6.4.1 (afa7bdf)
Ir       -0.71339233175712   -0.91205825803441    1.37024019833338
C        -3.06528168735704    0.65163934618075    3.33538176261759
C        -1.68160853330445    0.13371925763940    3.14437002744225
C        -1.25193916110542   -1.19134783307862    3.52093493622260
C        -2.11084658737169   -2.20913891662665    4.19040748691813
C         0.18495491006952   -1.23029171161864    3.43645911412075
C         1.05354101242732   -2.29022369904509    4.02101100197445
C         0.62425523595868    0.01153219420169    2.89324859566052
C         2.02926662465170    0.49264937786104    2.78181826569183
C        -0.54241436187438    0.86120045465961    2.71277663752947
C        -0.46223281772189    2.30747732648723    2.35725962675955
H        -3.22640020051644    0.81953390143573    4.40121141183607
H        -3.80989789121439   -0.06639286505896    2.99905650362370
H        -3.21340328381980    1.59829314172158    2.82321189395939
H        -3.12732431158464   -2.17813546990645    3.80877978613544
H        -1.71534422438048   -3.21137010175439    4.05374886657821
H        -2.14429221950153   -2.00102057097698    5.26049398246650
H         0.57039234258019   -3.26332173614380    3.99994129419922
H         2.01348015482707   -2.34522328097445    3.51504436234456
H         1.24372376393958   -2.03774195537006    5.06520180502720
H         2.15705874192628    1.10815850195914    1.89461848532560
H         2.73340459842604   -0.33240100675142    2.73987665734859
H         2.26455048745437    1.10406392929685    3.65396855194598
H        -1.44784288293139    2.75305932833919    2.26340987072838
H         0.07212785739023    2.43982485851143    1.41801068793514
H         0.08838074127963    2.84096633265306    3.13170383128406
C        -5.22490594556709    1.93013053114719   -0.51522620501534
O        -5.07413934584541    0.83489050389251   -1.40700765025681
C        -4.12608704466684   -0.06937712119958   -1.19217565704389
C        -3.23369039814680   -0.07406377397506   -0.11851150560363
N        -2.31112497089798   -1.01582283508814    0.05181291757349
C        -2.21223474526815   -2.02054450804196   -0.84628096264842
C        -1.15940344672786   -2.94850754579804   -0.56945534601836
N        -0.38306853407901   -2.70114236515556    0.43237465117802
C         0.67595806088640   -3.65194447213600    0.70229316810361
C         1.89906675468828   -3.44224212470387   -0.20663555020530
C         2.80428036748980   -2.30440129393064    0.27392275187457
C         3.92533736182781   -2.08946801088108   -0.70436982206189
C         5.09725354585801   -2.83023311787745   -0.61647113095958
C         6.11111705310113   -2.65804820780134   -1.54284337627457
C         5.96345409762477   -1.74197596939450   -2.57109762367998
C         4.79843640462796   -0.99872522972550   -2.66650916630390
C         3.78614821904524   -1.17351776685789   -1.73935413337946
C        -3.06757676868298   -2.10167366230210   -1.94977103021677
C        -4.02012115176923   -1.12668081581046   -2.12425867958186
Br       -5.21169727479896   -1.14955421715660   -3.60574167608440
H        -4.31645372150341    2.53461970876732   -0.48226487286056
H        -5.49101792971936    1.58260546576939    0.48515597005058
H        -6.04122372635356    2.52116135885598   -0.92454338283245
H        -3.26155313407007    0.71079963298481    0.62019697477371
H        -1.03302626407450   -3.83117632676892   -1.18714088267733
H         0.98168048366903   -3.55564108986374    1.74240748497642
H         0.28770054691706   -4.66140731601557    0.53787056549784
H         1.56320597636061   -3.22700222715123   -1.22215836352536
H         2.47356153133751   -4.36927224838118   -0.23131309464331
H         3.21679392253312   -2.56079123904160    1.25117499648250
H         2.21540257480112   -1.39113106639017    0.35798891303626
H         5.22169376868454   -3.54620213403331    0.18382884620857
H         7.01931948027157   -3.23845629966122   -1.46355678582552
H         6.75437740801460   -1.60647399422198   -3.29483407087656
H         4.68087398453597   -0.28009904721513   -3.46523459819044
H         2.87987469693336   -0.58991546961977   -1.81351357141578
H        -2.96461887790814   -2.90776923933447   -2.65765953074077
Cl        0.28601706439969    0.20454298857263   -0.49384521483658
