85
 energy: -124.487400590771 gnorm: 0.000272299574 xtb: 6.4.1 (afa7bdf)
Ir       -0.24393221207293   -0.42982236857050    1.79776977187571
C        -1.77440578294130    1.88314467968979    3.84136708954438
C        -0.53678526902658    1.22168904766367    3.33437071293521
C         0.01088877885403    0.03549173209251    3.95198907077275
C        -0.55364602383758   -0.63281896125140    5.16010443978461
C         1.32850015637517   -0.17724020163156    3.41950349712974
C         2.32988213020516   -1.13302956225748    3.96893719509715
C         1.53251328654322    0.77285037069658    2.38259368538804
C         2.80562502884918    0.99820164308772    1.63731758356186
C         0.37308098488775    1.66019058518960    2.33679365162820
C         0.36562174220056    2.94204065484324    1.54872023474672
C        -0.87597567450975    3.16394170307558    0.67799707577680
C        -0.70857087851872    4.44244747674810   -0.13881604788714
C        -0.49515809288105    5.64232141282889    0.78125094192571
C         0.72192970441657    5.42177373276365    1.67582480947682
C         0.56766527133235    4.14040196091886    2.49043258433566
H        -2.57580229718897    1.16178347532958    3.98836490856215
H        -2.11994398461549    2.66777944024145    3.17831516309719
H        -1.55149206343881    2.32936328046497    4.81138188932856
H        -0.18506688754287   -1.65054143290773    5.25234968430507
H        -0.25019429127289   -0.08080459407072    6.05048355806149
H        -1.63952411397676   -0.65212418824521    5.12957315746330
H         1.85551860686179   -2.03747998406305    4.34064359872323
H         3.06786459407193   -1.41263689772703    3.22285890416711
H         2.84758669351457   -0.65473839038590    4.80091358765693
H         3.47764472466100    0.15289094930683    1.75213608346404
H         2.61349842324046    1.14722102965961    0.57666595825277
H         3.30140996864266    1.88926157225681    2.02293115366433
H         1.22082134205649    2.90928609205376    0.86718855244356
H        -1.76945525765408    3.26472940691654    1.29457920730431
H        -1.00714258964516    2.30945181046891    0.01222953768959
H        -1.59266324856074    4.60211574761062   -0.75936800121717
H         0.14903457209587    4.33985650417749   -0.80746322023602
H        -1.38164573238298    5.78756028479934    1.40341626037577
H        -0.35765329347831    6.54686720337194    0.18549581821968
H         0.84768983914592    6.27199357016000    2.34964048303625
H         1.61840294871723    5.35470772166240    1.05498160483481
H        -0.28908551535705    4.23747918106304    3.15788681776374
H         1.45594798952692    3.98204000218334    3.10507941903144
C         1.85264515764574  -10.43811679328619    5.97915343441594
O         2.86392382968300   -9.45713645208697    5.88069266287124
C         2.66625801212587   -8.39272680985384    5.05870585316877
C         3.70967411209178   -7.46427147387898    4.99988002119564
C         3.61548169345578   -6.35444619974721    4.19172258053717
C         2.47449810771282   -6.12247124690826    3.42040434719754
C         2.38015071869069   -4.93838533073372    2.55537183831508
C         3.49472997251229   -4.47502415962788    1.85391154104841
C         3.40859308840203   -3.35187769089282    1.04932250463438
C         2.21878782603997   -2.65653924124458    0.93722482685995
C         1.09437505085236   -3.11840457378814    1.61936374691843
N        -0.11456076142634   -2.41870669334068    1.49928492969204
C        -1.20428632123098   -3.04383319227816    1.18034429195265
C        -2.38816631764082   -2.25350454176248    1.06752746977274
C        -3.63625463327859   -2.72821048194868    0.65063798113115
C        -4.68762745435091   -1.85065187851848    0.53685850379082
C        -4.48455108426790   -0.49087837950815    0.83214256829619
C        -5.55772887313519    0.46082368416932    0.72457606690282
C        -5.61102862703846    1.81970019741877    0.96065124546371
C        -6.93328375241503    2.21784429892415    0.69196736528298
C        -7.59578380877040    1.08402418860689    0.31219383228765
O        -6.78048262633518    0.02742620859410    0.32985862002471
C        -3.20590993388272   -0.09528622558016    1.24145615786335
N        -2.19795488102937   -0.94205557384104    1.36744881657449
C         1.17490482561979   -4.25529120857576    2.41843440270493
C         1.43692093493770   -7.04656671172247    3.49236135847020
C         1.52529050451483   -8.17075957791853    4.29331658634291
H         2.23222164647673  -11.17887351909951    6.68044515564132
H         1.66575910148082  -10.91595995364400    5.01275830161773
H         0.92224948822997  -10.01369351266081    6.36772366745128
H         4.58678450002665   -7.64246700668911    5.60179184133237
H         4.42912500960913   -5.64564167753836    4.17467067907282
H         4.42847570982862   -5.01002606737432    1.92755252877927
H         4.27691700416723   -3.01479045261168    0.50409410623209
H         2.13142122115803   -1.78685120959185    0.30547515794786
H        -1.20946296528118   -4.10495206202593    0.96171127104957
H        -3.75398012632494   -3.77356681976143    0.41549691756242
H        -5.66145229990739   -2.18521874374625    0.21739205820126
H        -4.80994622136042    2.45195485295820    1.28078249291425
H        -7.33946897985727    3.20488455645463    0.76857147362508
H        -8.61298948985896    0.91728920629183    0.01718505797551
H        -3.00184667351213    0.93961959281218    1.46608075892040
H         0.30486855502107   -4.57822478649794    2.96955534873696
H         0.55109649384738   -6.90876430054356    2.89110174281006
H         0.70319925650275   -8.86833719231215    4.30939300455165
Cl       -0.00829756707400   -0.18698073535029   -0.57108554014429
