55
 energy: -85.327946135846 gnorm: 0.000602448534 xtb: 6.4.1 (afa7bdf)
Ir       -0.51228123025741   -1.36006211140935    1.53021126263844
C        -1.47997422570395    1.72064905055675    2.47704365999912
C        -0.61270039596685    0.51935959393161    2.66887561027331
C        -0.81853226578036   -0.55127173252015    3.60622890244702
C        -1.96576292974654   -0.71400606261624    4.54313990438979
C         0.36598243771890   -1.35642545840822    3.62661826934263
C         0.63384407948923   -2.42201852295354    4.63467998481771
C         1.32316286803953   -0.76677082376179    2.72053074700995
C         2.76463759293866   -1.13429034059644    2.60271954771526
C         0.73515910626785    0.40934705750695    2.16894506415013
C         1.42197260767744    1.43803047392032    1.34577579986903
H        -1.01115871865741    2.58132874413340    2.95412126101477
H        -2.46120572326315    1.58071446912616    2.92031867400017
H        -1.59584977209004    1.94856563378168    1.41935025661579
H        -2.86781572757857   -0.24330226588417    4.16462110808577
H        -2.16879869161185   -1.76353156406302    4.73727340270571
H        -1.71127663766227   -0.23969782664242    5.49165865392938
H        -0.15503317049669   -3.17076526601767    4.64778832677464
H         1.58780333038893   -2.90799054292223    4.45705800786797
H         0.66766019314921   -1.96209697483500    5.62316412332086
H         3.13470507816530   -0.93277674655780    1.60074017250886
H         2.93224332773286   -2.18268127618602    2.82825138483406
H         3.34269856134596   -0.53357307347405    3.30586479820368
H         0.73481549675548    1.89129506454414    0.63690678598181
H         2.25790926026724    1.01463764263255    0.79700999360230
H         1.80135434942434    2.21987467196312    2.00454391692623
C         5.03739342181743   -5.62405681114627    2.46481376699997
O         3.74675753019409   -5.04443195249285    2.54204424918572
C         3.09978698319766   -4.72464010830359    1.40174734520867
C         3.60691344913590   -4.88928673728765    0.11277893835381
C         2.84276034874144   -4.52310835093635   -0.98249708388366
C         1.57971795584663   -3.99838314794672   -0.80378387796600
F         0.84410822484648   -3.65778627113699   -1.88608796228854
C         1.05664589652564   -3.79740479415665    0.47840973040573
N        -0.20817048735354   -3.22663180714072    0.67799869971368
C        -1.23384417901360   -3.72396666798265    0.06504833792032
C        -2.48677462822538   -3.04937474297852    0.23159118802993
C        -3.68346988270995   -3.46704426897062   -0.35378964770763
C        -4.82807177513163   -2.72254617096669   -0.14491072496870
C        -4.74145757043588   -1.57348818885587    0.63487691950342
C        -3.52113825952260   -1.21624452375193    1.17948939515290
N        -2.41631526893583   -1.93615889996219    1.00145302795078
C         1.82706464869009   -4.17516766993703    1.56763597026229
H         5.74929682518510   -4.94505799761266    1.98915101122020
H         5.01434341096239   -6.57394048000230    1.92575786983846
H         5.33604621211323   -5.79934041097649    3.49598558470468
H         4.58730373271750   -5.30344796901239   -0.05219584578893
H         3.21970666113856   -4.64896372553599   -1.98486915082759
H        -1.16257556391306   -4.60938401352714   -0.55677183357064
H        -3.69158255882533   -4.35476074471829   -0.96533261590969
H        -5.76708442068178   -3.02148424532008   -0.58311303206814
H        -5.60849628578565   -0.96019050177064    0.81763654872524
H        -3.42682050595504   -0.32186583404388    1.77555868525028
H         1.42258620558813   -4.08079396947584    2.56064243308304
Cl       -0.42603092076808   -0.56758480730105   -0.71359454555196
