59
 energy: -92.572204108629 gnorm: 0.000278396409 xtb: 6.4.1 (afa7bdf)
Ir       -0.65757503199837   -1.04569207764430    1.36050999923719
C        -2.06681804031188    1.49012574113183    3.19376523231305
C        -0.88219227290170    0.66268971963305    2.82404046808140
C        -0.46982992478956   -0.53996667466619    3.51523491846115
C        -1.14610376365521   -1.10645768372138    4.71769915375038
C         0.84448841467260   -0.88779270404674    3.04850346682316
C         1.72793406191714   -1.92374369757470    3.65169517685762
C         1.18892426064399    0.01194471851502    1.99876916784381
C         2.51339365547004    0.14218851882136    1.32650033865466
C         0.12505389502718    0.99439793247242    1.88272095532152
C         0.21849241471990    2.22224958139142    1.04414541252065
H        -1.79067283430360    2.14414402937394    4.02179976783053
H        -2.89681601279145    0.87015971734270    3.52225197701128
H        -2.38857277559320    2.11665667822960    2.36609659178515
H        -2.22720413472867   -1.05159789940987    4.62487176583341
H        -0.85900549386275   -2.14093584881754    4.88061625176286
H        -0.85287282206520   -0.53048669457283    5.59622923803059
H         1.15143599893075   -2.75903989909706    4.03914446477757
H         2.44887992675081   -2.30026288534908    2.93135853697108
H         2.27573012126185   -1.47590094313215    4.48156683772788
H         2.38715994918172    0.36867839024187    0.27012234903767
H         3.10023737881506   -0.76569969874644    1.42787707559405
H         3.06691127142096    0.96464179811855    1.78041834817540
H        -0.69316972119894    2.80957941333346    1.09166876746507
H         0.41204540787853    1.96218966912662    0.00490786453881
H         1.04916607730000    2.83398056634570    1.39600936441006
C        -7.41779917600599   -2.08815641871641   -0.53799330351820
O        -6.27654440764113   -2.92819708262203   -0.42942599737129
C        -5.13019558756186   -2.42532257305894    0.01294972111625
C        -4.91533891330725   -1.09598952164812    0.41029944435247
C        -3.66524479563185   -0.71478793300579    0.84974111021481
N        -2.63200090634151   -1.54713492300931    0.93507627756754
C        -2.81576664767417   -2.83389188138284    0.54002609973313
C        -1.62213095952249   -3.62861072231746    0.59435288931548
N        -0.53239474187275   -3.02567022916180    0.94656801228122
C         0.67828448644575   -3.73294642087854    0.99304215876302
C         1.79533516883704   -3.20023888958520    0.35887816429188
C         2.98838731858346   -3.90190406373477    0.38380231423606
C         3.05770047094860   -5.10507080189522    1.05334986695609
F         4.22928855794944   -5.77463960737412    1.08163449959364
C         1.94828409447472   -5.66403972561343    1.71126737048263
O         2.13890094350348   -6.84058385306670    2.33562776690365
C         1.04180588412662   -7.45777928340971    2.98617151627525
C         0.75135736572083   -4.95708282405306    1.66073676841463
C        -4.03790828322716   -3.30024756600126    0.08537640804611
H        -7.71408624012139   -1.70190953061884    0.43945239279740
H        -7.23364260223418   -1.26291686046737   -1.22894071690749
H        -8.20656205522603   -2.72413980510613   -0.93327271134072
H        -5.70302750044009   -0.36257472706127    0.37668996206374
H        -3.48731799704980    0.30766541939359    1.14612765281876
H        -1.63057809234149   -4.67047934814832    0.29756373669556
H         1.70737506789521   -2.27201682159363   -0.18121402986794
H         3.86867335439662   -3.52747796410040   -0.11340850396253
H         1.43963304657965   -8.37946322408032    3.40516444880080
H         0.65558695150351   -6.82887309025998    3.79175978389078
H         0.24576782956407   -7.69465932828935    2.27591888908386
H        -0.12696314966745   -5.33508610038209    2.15778559180285
H        -4.15728560237639   -4.32336381747032   -0.22999995672964
Cl       -0.47886688814145   -0.66484724861700   -0.99300811764607
