60
 energy: -83.361852906116 gnorm: 0.000252052729 xtb: 6.4.1 (afa7bdf)
Ir       -0.28356152402553   -0.79197016675369    1.47473688722979
C        -2.69713568123294    0.65377698404383    3.45586113211576
C        -1.29042190133457    0.20374086317299    3.25932106236263
C        -0.79578624276578   -1.09917375491726    3.62374307128182
C        -1.60067860312472   -2.16223159439246    4.29151738844607
C         0.64464222000849   -1.06678210187947    3.53570135574262
C         1.56682609368916   -2.08411438801076    4.11699036650478
C         1.01950303036170    0.19592266399153    3.00562612329086
C         2.39904061427474    0.74214234375330    2.87931941420239
C        -0.18888569817217    0.98196967240359    2.81458686592991
C        -0.18152072318327    2.43101206757703    2.45900673655780
H        -2.87728706355160    0.76743628426288    4.52570038129328
H        -3.40882142280914   -0.07614256132328    3.07650131348558
H        -2.88192730974598    1.61358149329608    2.98206690855213
H        -2.62712187412646   -2.15831206133686    3.93600463459281
H        -1.17471008397852   -3.14713254439897    4.12208044488443
H        -1.61349431853537   -1.97958753537360    5.36669196516214
H         1.11069666378996   -3.06992302719500    4.14519876324344
H         2.50577729964151   -2.13044256737300    3.57174956560257
H         1.79428238636937   -1.79450993502606    5.14389861671663
H         2.50347806063392    1.31850813238804    1.96284425504834
H         3.14359467055645   -0.04801401851621    2.88199234787595
H         2.59690851804915    1.40875275696714    3.71969208150567
H        -1.18616849215311    2.81084370083043    2.29857225796185
H         0.40182274310308    2.59959099732710    1.55564590934586
H         0.27986227636678    3.00066929457936    3.26569951085113
C        -0.75834388663069   -2.84697420139653   -0.43938786242504
N         0.01948280617255   -2.59489283935821    0.56023710537479
C         1.06278289620809   -3.55719496577478    0.84984934206966
C         2.29628447357145   -3.37253767881856   -0.05083178148478
C         3.21498319098767   -2.24461596005800    0.42769516548456
C         4.33050042162555   -2.03512502779205   -0.55809754365965
C         5.51157392093779   -2.75989222096448   -0.46240052897108
C         6.52047972332514   -2.58937023258905   -1.39468631270288
C         6.35797474508312   -1.69186980037284   -2.43684904058380
C         5.18303442933186   -0.96541289512732   -2.54068471729681
C         4.17610579234527   -1.13800418405211   -1.60756389594516
C        -1.79655103204373   -1.90154460056506   -0.72857793678811
C        -2.67797081292181   -1.99298357280383   -1.80623727461915
C        -3.63015656971595   -1.00631845798258   -1.97825190084927
C        -3.66918631341207    0.04880959677494   -1.07244343812201
C        -2.75925855133115    0.07959505021014   -0.03078793158792
N        -1.84996141557616   -0.87352046842691    0.15253459803057
H        -0.64658877506281   -3.74292629549922   -1.04076839942804
H         1.36088677428193   -3.45452719919150    1.89166477928067
H         0.66301327129382   -4.56313518287292    0.69127079348070
H         2.85705350749744   -4.30822876061977   -0.06391808843842
H         1.97121035933817   -3.16007648505397   -1.07047966681733
H         2.63529483525467   -1.32589028224081    0.51866667398628
H         3.63217922327021   -2.50701744223572    1.40138381620382
H         5.64745499707393   -3.46167587197832    0.34860081526299
H         7.43647498394808   -3.15648343321565   -1.30883713453894
H         7.14544500050049   -1.55696724995372   -3.16442260270216
H         5.05397446676694   -0.26120702728835   -3.35038313473032
H         3.26255708895140   -0.56666746077199   -1.68722410968064
H        -2.59621223053719   -2.82183957068217   -2.49080151518588
H        -4.32467433165006   -1.04914604586362   -2.80229375765917
H        -4.39466158082962    0.83943628415098   -1.17148078198857
H        -2.75953598933988    0.89454373692631    0.67648984249419
Cl        0.77263994317589    0.31087274741610   -0.36677193526903
