75
 energy: -118.997090214451 gnorm: 0.000668769493 xtb: 6.4.1 (afa7bdf)
Ir       -0.50246106122596   -1.25739197216458    1.59109785478027
C        -2.16300524659227    0.61539693220226    3.96566341864562
C        -0.90279292615173    0.02636518881870    3.43082627373587
C        -0.42264072320888   -1.27098224646437    3.83763285449821
C        -1.10093854775681   -2.14551708498933    4.83601203382975
C         0.92877348957901   -1.41495105930521    3.36287269235620
C         1.91956984177428   -2.43896368788605    3.79990930613358
C         1.23387065534681   -0.27098315436497    2.57413984568108
C         2.57346439576605    0.04614627354466    2.00557274717837
C         0.09096846130943    0.63249249406039    2.60777217155329
C         0.17015310708885    2.04695204895275    2.10160698975881
C        -0.97582439958327    2.47785261082601    1.17961584877353
C        -0.71033311428041    3.88659661571134    0.65495026869675
C        -0.57407915658228    4.87185904763997    1.81330173199900
C         0.54404373093500    4.43737335109312    2.75766356951314
C         0.29164147113687    3.02599938031051    3.28080775529207
H        -2.98556505951426   -0.09542294530536    3.91837832377386
H        -2.44638942814942    1.52512583441422    3.44797387950516
H        -2.00475308269987    0.85978134790330    5.01717035062956
H        -0.75854618199684   -3.17297749023001    4.76117348947209
H        -0.87524015899992   -1.78204908571131    5.83947705044116
H        -2.17941086898055   -2.12724446849469    4.70729193541179
H         1.45562304053302   -3.17189368215932    4.45103304322310
H         2.37172657354340   -2.95113924727182    2.95296900784678
H         2.71438810442328   -1.94150092976512    4.35524717763844
H         3.20681212070941   -0.83566908609199    1.99823179571181
H         2.48752253748863    0.41789125164143    0.98659605418503
H         3.04994042354097    0.81813071418958    2.61060186255502
H         1.08804639028661    2.12586139846412    1.51108414818051
H        -1.92762177808333    2.48649970977024    1.71170113736847
H        -1.04906007866134    1.77905130458805    0.34426070884139
H        -1.52827428304901    4.19423198582496    0.00029278631430
H         0.20748057366178    3.89060816045176    0.06260643029521
H        -1.51812092418507    4.92087158790879    2.36168812871780
H        -0.36461744782271    5.87122456783227    1.42689131519804
H         0.61212144223590    5.13212075182824    3.59710590225932
H         1.49709902173614    4.46607001420061    2.22422374141063
H        -0.62673232718694    3.01852227246050    3.86802670340794
H         1.11186435937713    2.71909630016114    3.93228435525163
C         4.42701521597986   -7.02067106542111   -0.32856015058030
O         3.60811593586599   -6.77168611444677    0.79803777536119
C         2.62871706606234   -5.85405406903404    0.70515509309710
C         2.35215062458353   -5.08084717843295   -0.41554709677040
C         1.29629070606071   -4.18742106697290   -0.41825931843128
C         0.53232109625232   -4.01046915953129    0.73068851497235
N        -0.53833182880297   -3.11170083071704    0.72328234940770
C        -1.46249488308953   -3.26831734855224   -0.18068349428036
C        -2.50045950938155   -2.29308843525340   -0.23228041920104
C        -3.57813985271625   -2.32428507931750   -1.12635934370249
C        -4.52092876847270   -1.32249763152632   -1.08216638377333
C        -4.35573921112313   -0.30505381805778   -0.13367172890390
C        -5.37459668948409    0.79807454532432   -0.04022303069695
F        -6.55932867427043    0.34875269236463    0.41521818927761
F        -5.00026445931051    1.78233342916757    0.78801931819492
F        -5.61943975796176    1.36397098624243   -1.23168655426117
C        -3.26713541254410   -0.32753070327215    0.71953369259322
N        -2.35587864641935   -1.29464450446342    0.68113296605550
C         0.81206483515499   -4.76032550510171    1.88002473816742
C         1.82651573893893   -5.69910421687239    1.87142573390909
O         2.13941001070871   -6.52231292760395    2.89457845079220
C         1.33695103654897   -6.50490428809447    4.05879250138770
H         5.12173811535347   -7.79705975381790   -0.01503841673144
H         3.83689400975763   -7.37953789040096   -1.17604207576468
H         4.98617643696140   -6.12699196491026   -0.61827374001010
H         2.95088329488350   -5.17936824484042   -1.30551314139422
H         1.09588538740185   -3.58291768809023   -1.28805316192554
H        -1.44812043889520   -4.11135715060399   -0.86058528074094
H        -3.65238347453724   -3.12587091608886   -1.84287941313170
H        -5.36328536809806   -1.30923951271980   -1.75609965936228
H        -3.12772152137440    0.45416535294825    1.45029608143292
H         0.17787892378084   -4.63344408247113    2.74056325531782
H         0.29236853254163   -6.72517084649817    3.82377663784083
H         1.41260315943613   -5.54575883035581    4.57680509212727
H         1.73784493515566   -7.28951287603682    4.69706720017863
Cl        0.24016848927772   -0.56984631116692   -0.56467987046870
