71
 energy: -106.163850542862 gnorm: 0.000758700294 xtb: 6.4.1 (afa7bdf)
Ir        1.20341667182322   -0.86980779170126    2.04782966982277
C        -1.21784535122930    1.08105102726257    3.35622811448769
C         0.10629997419384    0.41479589148078    3.47125583450839
C         0.28900324326607   -0.85685538708126    4.11066569863722
C        -0.79474150477100   -1.67589337095339    4.72524828564363
C         1.68962246091063   -1.10459541787259    4.21363298387084
C         2.33424438249769   -2.23669510240935    4.92386892507498
C         2.39613278581167    0.03711831541916    3.65782807612614
C         3.86703448154863    0.23753268452349    3.71607947960728
C         1.42343134338915    0.98513855612448    3.19992954721139
C         1.76405874423184    2.37512132213141    2.75097981477075
C         1.19316988637220    2.77385290795614    1.38392453367325
C         1.71375343650268    4.15577359973113    0.99791338385771
C         1.32264934617863    5.18999600139054    2.05136425218081
C         1.84982451026397    4.78304817344078    3.42494610921440
C         1.33271089699504    3.40078101520767    3.81515967637457
H        -1.98260890672702    0.38352392766887    3.02174292324457
H        -1.19277732271193    1.92837867791043    2.68195608918307
H        -1.50828564087527    1.43482686094308    4.34698151129784
H        -0.55303323194205   -2.73482099252020    4.71093758110551
H        -0.91581387672007   -1.37294383244795    5.76555892472231
H        -1.74344340918637   -1.52351341536779    4.21941864295710
H         1.63287339798437   -3.04470449998334    5.10670273851084
H         3.19016583644640   -2.61881790183404    4.37156268940200
H         2.69971039780048   -1.87809020427915    5.88747902597278
H         4.38559684158422   -0.70435341696282    3.86652945673593
H         4.23799645063408    0.69889921363956    2.80429400177390
H         4.10366125215133    0.89801126013238    4.55122185986151
H         2.85325583931474    2.42953623523226    2.66485846469323
H         0.10455253657185    2.80930866868741    1.41358274713794
H         1.49488020728309    2.03615072560017    0.63849366141058
H         1.30630863062974    4.44221042005381    0.02672109372881
H         2.80126102331013    4.12460676222802    0.90313121319882
H         0.23466416683587    5.27810404326674    2.08985068164659
H         1.72382413575058    6.16686997826557    1.77606928099828
H         1.53663740084122    5.51269488091965    4.17370623712632
H         2.94174763905946    4.77457233789570    3.40534250620898
H         0.24636483950361    3.42956947129317    3.88857102224690
H         1.73367662902395    3.11468101158698    4.78833578193411
C        -5.46337802214937    4.15435644604567   -0.66819278455525
O        -4.26549409157714    3.46902714825918   -0.34619500711151
C        -4.17088718349989    2.15703085981449   -0.62241269052092
C        -5.16262143299319    1.37077975375527   -1.20858859456572
C        -4.89694930067954    0.02178840829349   -1.41822025710284
N        -3.76777765731172   -0.57019456782272   -1.09981339566303
C        -2.80952028491652    0.17472936043478   -0.54149388787580
C        -1.56226918616207   -0.48547403867033   -0.19300591569111
N        -1.28323960802553   -1.66249242516587   -0.54453535410836
C        -0.20194235494628   -2.37333757397651   -0.16341133511781
C         0.01862608400475   -2.64965234642825    1.22169926982425
C         1.09714154425137   -3.49601885236444    1.58374549908319
C         1.97236243902591   -3.96703587793561    0.62530621690713
C         1.74741598760059   -3.68054787633703   -0.72671317570832
C         2.70064714581769   -4.23572939750572   -1.72880868483115
O         3.69564281381402   -4.85653367824102   -1.42986619639495
O         2.35626253692249   -3.97863089869486   -2.98350146204480
C         0.66215183568434   -2.91808294874386   -1.12173639708356
C        -2.96574716289790    1.53121731401542   -0.28138179889029
H        -5.65587242778103    4.13020482572696   -1.74371189194134
H        -6.31592959509017    3.73292607773843   -0.12976585444527
H        -5.30381266092111    5.18230516606584   -0.35042191233939
H        -6.11569178224184    1.77871223752748   -1.50027612619035
H        -5.64590677949640   -0.61516429832356   -1.86860340756521
H        -0.82709269730046    0.11058351339309    0.38544577105309
H        -0.83999295694770   -2.56678929364369    1.88360095363800
H         1.17955048905130   -3.85548512037469    2.59952573089694
H         2.81470572524130   -4.58907066050721    0.88390201430105
H         2.99159737601674   -4.35236932401176   -3.62057878634263
H         0.48040983324990   -2.72329151602713   -2.16612359114760
H        -2.17706522810430    2.11709308068846    0.16055299941099
Cl        2.36611545782153   -0.53658913365378    0.14033153183872
