74
 energy: -106.062642282816 gnorm: 0.000320760420 xtb: 6.4.1 (afa7bdf)
Ir       -0.19402031689539   -0.10886735081022    1.47658035738782
C        -2.11521803759567    1.54797034645489    3.63469131497058
C        -0.82836473629635    0.84260119254529    3.35387714821135
C        -0.68335954876817   -0.58714202562269    3.54087950183463
C        -1.75390718083523   -1.51442971360377    4.00781318283878
C         0.73852224828732   -0.88941028635985    3.62949794619554
C         1.31663166187932   -2.11921600934108    4.24099774236843
C         1.42688340542989    0.25146292199832    3.24545166285734
C         2.91151298201361    0.40270877772851    3.21446549334889
C         0.46675780670488    1.35188809009805    3.03974309098782
C         0.98135263133070    2.77430878146671    2.99601174439976
C         1.36576695083325    3.23086345162544    1.58071662716422
C         2.05403581300756    4.59354377889828    1.62774975481228
C         1.17416398274462    5.63752714313264    2.30825108172803
C         0.76492081168249    5.16408554378122    3.69982842467602
C         0.04888989259996    3.81805755500646    3.61229110903612
H        -2.95822582290631    0.89494537496723    3.42430418927425
H        -2.22300696037103    2.45289963683336    3.05295204329948
H        -2.14860361791649    1.80914311149883    4.69255858218199
H        -1.47329361633350   -2.54935442547849    3.82774761799367
H        -1.90301371361366   -1.38569603746572    5.08066466320683
H        -2.69853453469193   -1.31642508469220    3.50719428865296
H         0.72928993553170   -3.00960419459244    4.02787807563346
H         2.34543107878430   -2.28238113360766    3.92618848371305
H         1.32123786315934   -1.98944866186650    5.32524097512169
H         3.39471978707439   -0.54595476513461    2.98936647562437
H         3.22821974883805    1.13718458635703    2.47858494360979
H         3.26557859124353    0.73048951572724    4.19341620815803
H         1.89842853345953    2.77453569510004    3.59976984149678
H         0.46293760171129    3.28279527078556    0.97347381306165
H         2.04758305840771    2.51288976669744    1.12448920154820
H         2.29663675091942    4.91907291180800    0.61451241249700
H         2.99325981957751    4.50677482284074    2.18043338282580
H         0.27843023969505    5.81037627373052    1.70748625455098
H         1.71052367048942    6.58623014759535    2.37953559328783
H         0.10622869448249    5.90083886759299    4.16498581753880
H         1.65277537776719    5.07227706068869    4.33076881389167
H        -0.83409010185601    3.94129048585507    2.98911359989846
H        -0.26200055630550    3.50231904569817    4.60876087376703
C        -2.38617003256578    4.00047608699557    0.39711021432844
O        -1.83629007491224    2.72065862349154    0.65515054918089
C        -2.58855429806424    1.62773191310432    0.41165417402776
C        -3.91470624959257    1.66020102603223   -0.01687712279998
C        -4.56882994985787    0.46229834973667   -0.28703417547239
N        -3.98883358441860   -0.71366137261112   -0.22362934523676
C        -2.71809922922690   -0.74165424312430    0.18944336573916
C        -1.95400428492698   -1.95293881063786    0.08613973244596
N        -0.71508075677553   -1.89943765222935    0.43224210862874
C         0.13669990585402   -2.99827644940974    0.04511700901361
C         1.36173257190080   -3.30644153618287    0.91269547290416
C         0.99901657416548   -4.80696148168510    0.87706916475706
C         0.92709906724916   -5.49888320888203    2.21404882571161
O         0.34752069117165   -5.05738917123841    3.17949802653763
O         1.56240820709236   -6.66528056105611    2.19194187395789
C         1.55857637974968   -7.44900867075150    3.38541217828012
C        -0.37828275772527   -4.42968007467308    0.28875090125624
C        -1.97159881041023    0.37769238876045    0.58470909674439
H        -2.69938744026838    4.09494388337738   -0.64520813474443
H        -3.23309493924351    4.21377150593633    1.05504240910960
H        -1.58606236511821    4.71032145532121    0.59769638549276
H        -4.44450621326049    2.59010344530866   -0.14242997223718
H        -5.60422580701292    0.46258285666153   -0.59817228044899
H        -2.38692110878630   -2.82362609969827   -0.39169698919173
H         0.41498674871396   -2.84005321793883   -1.00245468057367
H         2.33056327652912   -3.04721406121319    0.49453056524085
H         1.26293328091102   -2.89763176507895    1.91164594272377
H         1.61766944411565   -5.39368632214131    0.20100893474165
H         2.27459925008171   -7.03946207351453    4.09977570822979
H         1.84986563327517   -8.45297452352072    3.08918026442949
H         0.56378104537479   -7.44855655942894    3.83363259198161
H        -1.15666420600674   -4.45693326238541    1.04972414235701
H        -0.69143794063541   -4.99534681533198   -0.58400867415240
H         0.92274400179399    1.13625462371986   -1.43759808130046
Cl        1.21150077714812    0.35430030615021   -0.48137851543477
