81
 energy: -133.166232292570 gnorm: 0.000339827813 xtb: 6.4.1 (afa7bdf)
Ir        0.16330748279165   -0.58800425787294    1.77998008621772
C        -1.43491134523277    0.64466154247777    4.47759373162258
C        -0.14745286735328    0.30546504486484    3.80966328273021
C         0.56976284342421   -0.91672169715123    4.00154123434140
C         1.80673598765646   -0.82449239441762    3.27029428390886
C         2.94479695520796   -1.78873284362094    3.33514347337871
C         1.90054097566960    0.50561909639504    2.72808472592239
C         0.67294597306185    1.18715699646139    3.01140837622233
C         0.40429539509052    2.59987271214225    2.71626798051565
C        -0.00011637929203    3.47276471062103    3.72552377146579
C        -0.22465633881497    4.80618473879253    3.44734294430218
C        -0.05579648533010    5.30847323264982    2.15790132654057
C        -0.28809107420937    6.73084370962852    1.86839006600678
C         0.58404537816492    7.43656188473866    1.04193339287724
C         0.37155851478979    8.77697620004898    0.77716589073960
C        -0.71935660181193    9.43103051246296    1.32653409722312
C        -1.59559837949846    8.73703789761315    2.14524719727910
C        -1.38022572437056    7.39870594382408    2.41843595417461
C         0.34751334212140    4.43237810593073    1.15104369856132
C         0.57639321781996    3.09911879717620    1.42391412230991
C         3.11590725677863    1.09939571537928    2.11515485272240
C         0.18527149890891   -1.96555363391263    4.98742444127689
H        -1.24186362188281    0.89719555814687    5.52116417548591
H        -2.11446362079132   -0.20423822570756    4.46652599917191
H        -1.91563815981173    1.49546437881294    4.00238434169428
H         3.53628301723826   -1.58786005528443    4.22901637696429
H         3.58611493847103   -1.67870900578727    2.46533509933590
H         2.59138420734097   -2.81513233297597    3.37631303248733
H        -0.10572759187119    3.11367993361680    4.73686653253104
H        -0.51290067039141    5.47496934477665    4.24413605357786
H         1.44531183191593    6.93740690564390    0.62212661702207
H         1.05960902210056    9.31474462824356    0.14103786182995
H        -0.88610185219810   10.47730111892116    1.11683236854850
H        -2.45024902228685    9.24184464762804    2.57174427115175
H        -2.07708923351991    6.85972695535459    3.04373063718723
H         0.46413259431446    4.79731251306349    0.14174475962873
H         0.86915787657874    2.42967962746648    0.62828882808535
H         3.29217801301207    0.69045440694656    1.12037463408517
H         3.00921801336843    2.17762962944763    2.02703586741848
H         3.98385082118432    0.86721804686957    2.73007061074303
H        -0.82770216087478   -2.32596259948130    4.82208600354549
H         0.87986961522026   -2.79894821599846    4.96762829885707
H         0.21280996531781   -1.52285925421134    5.98403038815831
C         4.48538478174432   -9.25111409948765    0.92079667672218
O         4.17331894062954   -8.51595557026599   -0.24716656573280
C         3.38025839201504   -7.43018649445097   -0.14497539213213
C         3.11800087812184   -6.76453108425265   -1.37061840686581
C         2.33310931396003   -5.65442328605106   -1.40728508990550
C         1.75181782168015   -5.13918044952591   -0.22298061965210
C         0.92300366526535   -4.01042501638858   -0.23549208523879
C         0.39159494417325   -3.51101204389426    0.94058409052347
N        -0.40559814922784   -2.36662975336750    0.92665200269750
C        -1.36721698531336   -2.27787283550026    0.05245594670059
C        -2.06300931555742   -1.03619539833055   -0.04507275589918
C        -3.12041042139008   -0.78667952237783   -0.92850563958222
C        -3.68856625809850    0.46751492784642   -0.96369060814542
C        -3.17532345642228    1.44687783602692   -0.10575593649638
C        -3.71982632902112    2.84877620615435   -0.12702740691542
F        -3.09552147257349    3.61386625272000   -1.04179666510208
F        -5.02508555219687    2.88869066977217   -0.42776477507904
F        -3.57308311643998    3.47335426909819    1.05064393460970
C        -2.12970817185283    1.13701669104769    0.74740492387540
N        -1.58836711184769   -0.07405148583698    0.78918536487783
C         0.66030934548014   -4.16376897890064    2.16405794079939
C         1.43485271880143   -5.28551762426362    2.18987317927677
C         2.01475347136515   -5.80275245421236    1.00783690447473
C         2.83246701366435   -6.94503045917297    1.02415822655300
H         5.12059059471372  -10.07009865613689    0.58971490818436
H         5.03029824193072   -8.63505345320171    1.64097154637925
H         3.58199803853761   -9.65505776373407    1.38562876216349
H         3.56404884562219   -7.17166407104802   -2.26399474086297
H         2.14037717113809   -5.15378949831668   -2.34381818546869
H         0.75103988658127   -3.49031445171267   -1.16587000215245
H        -1.62472365662210   -3.11224550366502   -0.58855574755319
H        -3.47031592629862   -1.57293581067443   -1.57723554512349
H        -4.50499194210516    0.69791476459472   -1.63040387831460
H        -1.71949699142690    1.89171429814036    1.40449124431957
H         0.19366295814094   -3.78800773155181    3.05809849874516
H         1.61385285259112   -5.80096368438610    3.12133946409625
H         3.01681568270403   -7.42752521999516    1.97069909988308
Cl        1.18286468944686   -0.26427153422783   -0.34351235663660
