65
 energy: -87.571438344201 gnorm: 0.000351510611 xtb: 6.4.1 (afa7bdf)
Ir       -0.43064454314323   -0.81935959327821    1.03255414193983
C        -2.46475556068890    0.84321788666842    3.32462498843359
C        -1.17889728316945    0.17336954409317    2.97834877790909
C        -0.93726991285463   -1.23770092610672    3.16941329929889
C        -1.91272232067215   -2.19062109329484    3.77402619605257
C         0.47453856157780   -1.46864757270618    3.01960615599154
C         1.19293805247746   -2.69359882396267    3.46997081070490
C         1.06841168264827   -0.25383970634734    2.57587374917650
C         2.52303978763983    0.02578423226437    2.40844702447847
C         0.03833016303307    0.77426141330872    2.57572475443727
C         0.33216436069411    2.22707741859349    2.40388482931747
H        -2.62402355074992    0.75174755197671    4.39953538892455
H        -3.30842168088530    0.37415438094052    2.82280101316112
H        -2.45167896127290    1.89757533390154    3.06818796615340
H        -2.92812836310629   -1.96022229597026    3.46362645447469
H        -1.68477426859941   -3.21718101729702    3.50074686234575
H        -1.86470232677894   -2.11135688926905    4.86108996477208
H         0.60365135980901   -3.59254418408436    3.30755251088856
H         2.16115713978019   -2.79358692151070    2.98651953913718
H         1.36909739285521   -2.60467416937224    4.54347126656566
H         2.68770469549089    0.69561062741029    1.56760271031862
H         3.08704643103436   -0.88742940989059    2.24229130419976
H         2.90465569089830    0.51026103038564    3.30786667325250
H        -0.56877063565980    2.83001893869392    2.47173629877075
H         0.80882063979696    2.41309372542312    1.44217098539685
H         1.02279368482588    2.54810626249712    3.18357249968746
C         4.52439388353426   -3.19674400480070   -1.17177120930865
C         3.27257021284389   -3.68272664811696   -0.45057073709737
C         1.99793470390801   -2.92037962600301   -0.83788685066394
C         1.64088076125505   -3.06565916246386   -2.32483344735730
C         2.09913071666876   -1.88353234788216   -3.17358341504547
C         0.84661978115017   -3.45147335828118    0.05369352315075
N        -0.29157207862397   -2.57499467969335    0.02764466633259
C        -1.30817170703806   -2.89613810526733   -0.70140831856554
C        -2.36251293433666   -1.93521101799635   -0.83306243278982
C        -3.50827003499151   -2.15352565736619   -1.62265206842493
C        -4.43878685470238   -1.15987422869138   -1.73162639128458
C        -4.19273225060386    0.08765552827119   -1.11858638122314
C        -5.07230396767785    1.17968926395459   -1.25427277732314
C        -4.76738764214204    2.39569444194165   -0.70471804528718
C        -3.55995500362188    2.56975292310314   -0.01047967350174
C        -2.69805021827495    1.52109084580743    0.16619971838628
C        -2.99702624889238    0.25007936785007   -0.35814711649270
N        -2.14686999880902   -0.79073711266905   -0.17000045882394
H         4.48021393717303   -3.42055378129929   -2.23358415400875
H         4.64806222122801   -2.12375807463309   -1.04585381450286
H         5.40190271803932   -3.69287244645535   -0.76228237146530
H         3.13222579747933   -4.74677971113789   -0.65473207262855
H         3.43455953799812   -3.57280674159646    0.62391733975784
H         2.13488218754027   -1.85922013472325   -0.61098380938372
H         2.06694957259527   -3.99173385817539   -2.71630124623587
H         0.55582690292452   -3.13350630404609   -2.43326125498326
H         1.78989461229920   -2.02160732626297   -4.20769267015371
H         1.65293493616815   -0.96385635349569   -2.80349885900349
H         3.17834795065893   -1.76921064099900   -3.15376705023578
H         1.21081864317310   -3.51957653461678    1.07730034117052
H         0.56425959766893   -4.45143163250682   -0.29068770117577
H        -1.36596821884494   -3.84596375816173   -1.22217712368592
H        -3.63069661672625   -3.10293933977357   -2.11739372839927
H        -5.34559215805786   -1.30082814444530   -2.29915389182373
H        -5.98178104303424    1.04082882650661   -1.81845058830158
H        -5.44113743989832    3.23034293919748   -0.81943840987030
H        -3.31063278413761    3.54444510389766    0.37928362418117
H        -1.75134090354670    1.65871106952419    0.66083198342453
Cl        0.60108919465730    0.41575167846063   -0.72029529312658
