74
 energy: -118.462998871247 gnorm: 0.000262952492 xtb: 6.4.1 (afa7bdf)
Ir       -0.57348206771701   -0.62922441522853    1.86755065194640
C        -2.64796610118416    1.26624028618810    3.92315328584527
C        -1.33767103107114    0.62224879458207    3.64283461305962
C        -0.99911934739184   -0.71180484080001    4.06156438630239
C         0.41992785447642   -0.87428665432652    3.91676859649468
C         1.23141861452631   -1.89482366496752    4.62647125020703
C         0.92691365987936    0.27666447925447    3.23071859707797
C        -0.17076137789318    1.22531588434738    3.08895051842251
C        -0.01023300547091    2.64604608332374    2.75123859515711
C        -0.37659990677552    3.60769184054269    3.69307940656396
C        -0.19944369016171    4.94992550311661    3.42693566338784
C         0.34558193268843    5.37364807680808    2.21627656663567
C         0.52664774706425    6.80518882063723    1.93353667922300
C         1.69329789715175    7.26708714060588    1.32756242484567
C         1.86476479110931    8.61443422172614    1.06768024285118
C         0.87049393690261    9.52032479727237    1.40004217286205
C        -0.29592013655902    9.07092487458483    1.99782282648590
C        -0.46539709856251    7.72519595517239    2.26730251676603
C         0.71463408324267    4.40832456814660    1.28131398562707
C         0.54135501706287    3.06457401527584    1.54307495373595
C         2.36574635013984    0.60667934725860    3.03862535880165
C        -1.90073177343932   -1.61707011199104    4.83082298284353
H        -2.76527744751251    1.34151546647695    5.00532753534840
H        -3.47836866704290    0.66989450860336    3.54991681545061
H        -2.70074102259683    2.26222383083146    3.49542658871239
H         1.47076535194795   -1.48620178692626    5.61046261906603
H         2.17416315637486   -2.08844873317501    4.12314873418624
H         0.67962588752463   -2.81816301288195    4.77956131387549
H        -0.77132515666766    3.30116044904079    4.64930496000337
H        -0.46767010375605    5.68097031569852    4.17453787537196
H         2.47846669902698    6.56829968326771    1.07787083751551
H         2.77756991096489    8.96089575483842    0.60472095140274
H         1.00399873743806   10.57202717954503    1.19260821261715
H        -1.07593246340849    9.77337548221105    2.25375787450226
H        -1.38370174633351    7.37958549909457    2.71941999239029
H         1.12249509758853    4.71694104102234    0.33054300265420
H         0.80067998018217    2.33418556835093    0.79306841644250
H         2.97601647653224   -0.29164510131419    2.99600453391122
H         2.51610295605007    1.19161418117112    2.13558267677314
H         2.69965149227989    1.20781817458699    3.88525903850829
H        -2.93867096192171   -1.47345764095113    4.54418021957520
H        -1.63371727003855   -2.65961712178965    4.68141346212265
H        -1.80830128839099   -1.39468776636098    5.89458183352833
C         6.14963540343219   -3.85677204044107    2.67955077086679
O         4.98239725437073   -4.12269379413654    1.89834267796765
C         3.91209747410550   -3.37116292868760    2.10707870863127
O         3.85373287125965   -2.48018480924741    2.92335648688716
C         2.77829757960466   -3.76041776213430    1.19442013042684
C         1.42843028988519   -4.14293119972063    1.84047122314176
C         0.71607082542895   -3.33286667676012    0.73642654750013
N        -0.45055620040289   -2.54691622678359    1.03646163253506
C        -1.57314207349659   -2.98983028518112    0.58005987571885
C        -2.70372020959454   -2.11119551812472    0.52080688957967
N        -2.43576081275061   -0.82160228531742    0.83300996511524
C        -3.32111565484385    0.11114945055089    0.49170290148380
Br       -2.81053026794634    1.92050792202352    0.63834944685902
C        -4.57528745750554   -0.19012482810368   -0.03009313771721
C        -4.91401787487590   -1.51496647239042   -0.25629779528671
C        -3.94694076944139   -2.47382523362225   -0.00897058001305
F        -4.17798963692245   -3.75842428653074   -0.28691669945326
C         2.04345931734328   -2.59709364250566    0.50078115893112
H         5.86586607251118   -3.55951372171930    3.68998574557693
H         6.72464955533009   -3.05491638714316    2.21431226611480
H         6.72652811424968   -4.77737176150761    2.69134650709082
H         3.13248474476766   -4.51622722554774    0.49525305229955
H         1.19173275191400   -5.20209627006569    1.88328393783329
H         1.31176337059591   -3.68611482058472    2.81596279714962
H         0.49303162623489   -3.98976194330908   -0.11007237726803
H        -1.65973073477985   -3.96500507779704    0.10839649411701
H        -5.26272858811998    0.60777740946979   -0.26156020430180
H        -5.87783018210404   -1.79658388287875   -0.65027832206641
H         2.30045570445208   -2.38363344828550   -0.53186930109429
H         2.10348230706082   -1.68471670526873    1.09079291537170
Cl        0.25464923389399    0.05633547878988   -0.27252648312522
