72
 energy: -118.045000997625 gnorm: 0.000474884865 xtb: 6.4.1 (afa7bdf)
Ir        0.73324231246255   -0.04690521851530    1.53312390161614
C        -1.88815207590538    0.47337201685758    3.56793972989580
C        -0.41613189364149    0.37376129094043    3.38789268044736
C         0.35448667849541   -0.80665008951967    3.64998597616997
C        -0.19674062881842   -2.12085832855756    4.08959259481515
C         1.71993726417249   -0.45281946682148    3.47854848584455
C         2.90564061346853   -1.29311299140791    3.81508509967810
C         1.80003970210772    1.00591446756126    3.28210521619482
C         3.07515756919981    1.77243044830141    3.35712815765481
C         0.49779923829251    1.50912493844069    3.26646453327539
C         0.10113969966401    2.91713576664578    3.18807735085044
C        -0.75466044138466    3.44892609537874    4.15156767116479
C        -1.09957897810564    4.78478120749287    4.08472142413240
F        -1.92820579529641    5.28778707315885    5.02384355896454
C        -0.62959777576376    5.62906250217227    3.09415825654260
C         0.21813536418455    5.07293128405439    2.15221137365622
F         0.69257847972798    5.86029018688787    1.16507614627674
C         0.58728011914770    3.74213398918110    2.17444009083529
H        -2.27322533669073    1.40857340834064    3.16910827952099
H        -2.12172172762619    0.42233931463876    4.63228601886601
H        -2.39672818582241   -0.35528966979270    3.07885238000207
H         0.45976218141788   -2.94077773479607    3.81313819596670
H        -0.30415411712233   -2.11889216872235    5.17461865635330
H        -1.17512108216436   -2.29695730584550    3.65141564987531
H         3.26698996999269   -1.00800713970418    4.80364714597772
H         2.64124785729617   -2.34620657723025    3.84410672884818
H         3.72011160334295   -1.14149884634764    3.10982933440914
H         3.85446330611267    1.30492107308930    2.76123440252145
H         2.93812768003170    2.80111324183533    3.03888076102332
H         3.41523819188491    1.77926843988562    4.39362275083290
H        -1.13159570365203    2.84497873491737    4.95995376336099
H        -0.90793649550361    6.66910415999893    3.05967015323002
H         1.22733712756510    3.36016799095520    1.39529328676196
C        -1.44059408122704    4.39227455649596   -0.94264789153497
O        -0.68874499514753    3.19582440121379   -0.85241212685831
C        -1.27345603871176    2.09022388238787   -0.37191485088226
C        -2.57862769675633    1.99553888975705    0.09434372307900
C        -3.05028942616125    0.74771801785542    0.50017855382595
N        -2.32970354638204   -0.34769079744391    0.54160781225238
C        -1.06014022752558   -0.28107950094595    0.10841039857330
C        -0.17839417301596   -1.41239002200082    0.30147718065088
N        -0.14280325436140   -2.56045813667119   -0.13441265499339
C         0.65408186497807   -3.66374356722333    0.05991828546102
C         0.33895266470353   -4.79969445089352   -0.71991132095627
C         1.07847114219314   -5.93931408020016   -0.60272864102407
C         2.17233220518790   -6.01034912668698    0.28956967209178
C         2.94778904494552   -7.17890258977297    0.41304636304093
C         4.01080247623239   -7.22501438787688    1.28512622269692
O         4.82295376214841   -8.29234712124478    1.48306170121484
C         4.59003614885848   -9.47112625935404    0.74051317110478
C         4.32748589665529   -6.08381934213477    2.06355379666265
C         3.59158211254225   -4.94422642369736    1.95871809834286
C         2.49063992442723   -4.86762912433601    1.07304748204806
C         1.71416270790774   -3.70674655988033    0.94234646142737
C        -0.47308424757634    0.92311286285433   -0.37293661080304
H        -1.79918980765062    4.70805052037442    0.04027501845087
H        -2.28689169666166    4.27484732469033   -1.62354439560617
H        -0.75420667781111    5.13936525340448   -1.33516426655409
H        -3.24341306531663    2.84256048073772    0.10241123503898
H        -4.07844663515749    0.63491607151768    0.81557490237192
H         3.55838550393519    0.63825720837847   -0.05612192167348
H        -0.49521643963827   -4.73932845427722   -1.40061554968222
H         0.83702593626208   -6.80827784566661   -1.19674090373600
H         2.68189460618473   -8.02930570224249   -0.19483065086364
H         3.59985341758212   -9.88504576771484    0.95246032600917
H         4.69121428589653   -9.28951692144236   -0.33358274699960
H         5.35391074501472  -10.17621574331492    1.06244507180086
H         5.16947098595568   -6.15561340151658    2.73354781544237
H         3.84815323393364   -4.08030620186662    2.55228045232070
H         1.94902327389800   -2.83793572336350    1.54103129781508
H         0.40333656725581    0.93585856185647   -1.01307840334146
Cl        2.71711778110564   -0.31614487356486    0.02662113822952
