74
 energy: -110.088272238171 gnorm: 0.000478390271 xtb: 6.4.1 (afa7bdf)
Ir       -0.55005209614888   -0.48662506109876    1.45686520980503
C        -1.97092092962922    1.32012346366602    4.01708454190750
C        -0.76663295805412    0.67279220129300    3.42525792570132
C        -0.37113086739422   -0.69015461053212    3.66150211156208
C         0.95000440776689   -0.86975785542002    3.11461982147687
C         1.84837508931397   -2.02302535206798    3.39850527052596
C         1.30229792209801    0.31962561023572    2.42165333384717
C         0.23357344351448    1.28989755399803    2.62351152568612
C         0.36223100126516    2.73085943081914    2.35155853899546
C         0.32080218622512    3.62383887769999    3.42156929977138
C         0.50800379077100    4.97521045250101    3.21250774787445
C         0.73830553953135    5.47669766278545    1.93234688941070
C         0.95769777119954    6.91472968021742    1.71647363708419
C         1.93227518320458    7.35486922642480    0.82281585710738
C         2.14926874973509    8.70640320014816    0.62708723324706
C         1.39282209946335    9.64079754560959    1.31575574882377
C         0.41818216175655    9.21456658347708    2.20333904369140
C         0.20385063005532    7.86338558348512    2.40486810294372
C         0.76364885436663    4.58081307972952    0.86462817005635
C         0.57957048790190    3.22775313062891    1.06871419635162
C         2.63339295788860    0.64118738575400    1.83595099320971
C        -1.06137353237889   -1.62746123630850    4.59417428191778
H        -1.82715464802219    1.41454674590795    5.09361734868795
H        -2.86313609971622    0.71859234842255    3.85724949409871
H        -2.13087860400363    2.30895482678193    3.59789629935557
H         2.37220156954974   -1.82960471397307    4.33545602261723
H         2.59025728581436   -2.15182741082084    2.61581073674533
H         1.29103406363888   -2.94920902710956    3.50761701739889
H         0.17348080852647    3.25250444415438    4.42412958261507
H         0.50224648258668    5.64942646308443    4.05576903491764
H         2.53830074443177    6.63332302008235    0.29428841367756
H         2.91318096234643    9.03350463244148   -0.06357260071298
H         1.56225626564398   10.69636076854974    1.16119837043472
H        -0.17683327908334    9.93956734038281    2.73987762831850
H        -0.56815405089900    7.54107785956180    3.08833730952488
H         0.91469409443859    4.95048172712672   -0.13848161600296
H         0.58269141085858    2.55215024737483    0.22634822414239
H         3.16114056340349   -0.26070660202196    1.53892479747524
H         2.52987493670722    1.29201894399501    0.97196113691688
H         3.23251745707088    1.16495372127897    2.58188450169876
H        -2.13956387485751   -1.49815565784862    4.55168295138879
H        -0.81745515297259   -2.66130208632994    4.36560883440963
H        -0.73592261180645   -1.42140386301061    5.61468090131907
C        -1.92636886065978   -2.76210126511951    0.44155582020127
N        -0.73903769044395   -2.38177112715380    0.79174248561542
C         0.32963687179482   -3.28601866553413    0.75931555114617
C         1.54527157964291   -2.88186190421883    0.20705920497675
C         2.60035331494889   -3.77268510668884    0.14610530971673
C         2.46416973018401   -5.05595282657992    0.65490538576135
C         1.26106807710214   -5.45268513833997    1.21943349255967
C         0.19133344013747   -4.57866833452700    1.26784157965759
C        -2.95343010939482   -1.76561857026098    0.44279091437371
C        -4.28189777085651   -2.03046575566786    0.05572753406476
C        -5.18337783676369   -1.00472487220956    0.03190769534781
C        -4.74906900174981    0.30636082575164    0.32374973060896
C        -5.61116255632619    1.41806082686621    0.25002196138907
C        -5.14228418478156    2.68276601933896    0.48375439875218
C        -3.78646034288008    2.88477263072586    0.78664337965099
C        -2.92719091337897    1.82455256411836    0.89318870084763
C        -3.38323313413887    0.50906838902452    0.68566797427499
N        -2.53467457918280   -0.54254537543536    0.80228868994670
H        -2.12481832937217   -3.76834380321764    0.09124918928732
H         1.63068917726472   -1.88594563212289   -0.19986573520890
H         3.53335780858691   -3.46465927041544   -0.29977174185307
H         3.29398250405462   -5.74395047272325    0.61417594575034
H         1.15536123743517   -6.44750900794361    1.62313137648556
H        -0.73948500917946   -4.87952417452967    1.72423526555012
H        -4.56037360125865   -3.03838569791009   -0.20408439652608
H        -6.21665412180031   -1.17391351151017   -0.22929261875383
H        -6.64511089915948    1.25070506089318   -0.00958266745940
H        -5.80555793779442    3.53105444350974    0.41988653707667
H        -3.41847187786702    3.88816229925228    0.93254441674918
H        -1.87979155753654    1.98623187542591    1.08968083448174
Cl       -0.03775264273710    0.18969029613430   -0.77863808449615
