77
 energy: -122.868853451264 gnorm: 0.000389562962 xtb: 6.4.1 (afa7bdf)
Ir       -0.23791077558268   -0.58255600274269    1.48258745308161
C        -1.43629321532376    0.97808365368094    4.31730846789215
C        -0.28555282196261    0.48017552716763    3.51802746587512
C         0.27953625267992   -0.82508454445257    3.67792722784361
C         1.47489978531716   -0.89113628569879    2.87621242106612
C         2.54054687695926   -1.93107051048644    2.93445426920974
C         1.64919651925089    0.38135459721995    2.23667760869555
C         0.54476438005660    1.22642642855938    2.60978663319416
C         0.51763488536715    2.67248129592086    2.36152718236840
C         0.37214824358925    3.56508964436214    3.42238398700052
C         0.42360059454556    4.92724486420834    3.20269372104051
C         0.62335701173716    5.44073768530090    1.92213945906155
C         0.69601364891400    6.89123078124538    1.69244701826145
C         1.63677892710725    7.42067280815702    0.81072300129978
C         1.71363480127441    8.78490825310448    0.59909917630138
C         0.84758450044716    9.64217557606121    1.25828996446486
C        -0.09374165754156    9.12645694151793    2.13433377874279
C        -0.16689300323825    7.76312624168883    2.35363916291969
C         0.76313002461819    4.54333150831700    0.86315801026230
C         0.71497326162535    3.18082930867112    1.07748889249931
C         2.87023249918937    0.80319472105380    1.50256983771860
C        -0.16012074255217   -1.79276252577817    4.72324850238843
H        -1.12243988157926    1.07273655648271    5.35799069172868
H        -2.26378608725040    0.27288766654522    4.29157747431130
H        -1.77932451498420    1.94352660679934    3.96178672405755
H         3.33514705582637   -1.57471011621161    3.59130497484343
H         2.96796698855915   -2.10306452383827    1.94982850297523
H         2.16852533557035   -2.87084956711960    3.32691139842148
H         0.25623119572155    3.19316124880794    4.42760357126227
H         0.33590943782056    5.60441513602611    4.03861801311308
H         2.32733361308362    6.76149231229316    0.30505983208736
H         2.45283673525388    9.18229096425725   -0.08143715959737
H         0.90620765811245   10.70748556328865    1.08984307497869
H        -0.77310700801946    9.79079544719151    2.64840732091730
H        -0.91317406305865    7.36965820422400    3.02808589463511
H         0.89763915466254    4.92027622716360   -0.13991759580361
H         0.79929126719121    2.49888402251156    0.24506926518669
H         2.85703198782884    0.43553764123707    0.47713458074585
H         2.93267143396046    1.88784663901897    1.46878133703073
H         3.75382313965997    0.40007949719693    1.99327414067645
H        -1.21984354410354   -2.02050814573377    4.63523698875035
H         0.41189680652749   -2.71350020869729    4.68108261139969
H        -0.00325904313476   -1.34033325173987    5.70311808817019
C         2.50033007546891   -6.95864132238270    3.36311464307037
O         1.59171853604256   -5.87790540189464    3.24043335934538
C         1.43193929479507   -5.28881796382580    2.03836940967809
C         2.10583017078470   -5.64547953425144    0.87037911721280
C         1.85030708117774   -4.96894606240282   -0.31029078546553
C         0.93480318328061   -3.93765284277992   -0.33272799639601
F         0.67224429981895   -3.30402340168225   -1.49631640702165
C         0.27348796190831   -3.53487297372426    0.83196410854996
N        -0.64437997514241   -2.46578512958519    0.79831142816661
C        -1.70664413483570   -2.61547693073896    0.07524138381709
C        -2.59380087671853   -1.50541504279724   -0.06637613974451
C        -3.71818279295333   -1.55224944337858   -0.89399794925386
C        -4.50816575307363   -0.42975706205292   -0.99989983961180
C        -4.13621196176650    0.72700934526479   -0.30686206808573
C        -5.02635680371172    1.82233403477876   -0.34435720122590
N        -5.81212369182703    2.65734300057904   -0.37917498598610
C        -2.95211415708118    0.72690827963388    0.45974716561847
S        -2.34223156264337    2.12457627241995    1.29597765316111
C        -2.73881522823769    3.53378375574549    0.22214153238310
N        -2.22741388417534   -0.39107559882412    0.61028032679706
C         0.51766430766170   -4.23159801134624    2.00409745911121
H         2.45000677750551   -7.26021144898427    4.40707255487799
H         2.20776667565721   -7.79763006039895    2.72737458500036
H         3.51960548441223   -6.64712257223302    3.12169044581034
H         2.81983093547457   -6.45140965931404    0.86234324119076
H         2.35120198339172   -5.24433183443222   -1.22444080494503
H        -1.91851257384747   -3.54659256916470   -0.43907854428132
H        -3.95131116363398   -2.45538205505986   -1.43239262661279
H        -5.40759705134881   -0.42756045407242   -1.59600545683466
H        -2.71049866797009    3.21916699325613   -0.81522675710239
H        -1.94485114854424    4.25220046924482    0.40961947406868
H        -3.70156232257096    3.96260369181864    0.47734804979015
H        -0.02835553888793   -3.98337857065494    2.89816543680586
Cl        0.38522885790557   -0.07034878327185   -0.74463178265593
