66
 energy: -116.323840453269 gnorm: 0.000371140608 xtb: 6.4.1 (afa7bdf)
Ir       -0.19238592342806   -1.05044551704433    1.47706402886545
C        -1.73135378633375    0.17114240885493    4.19161708327081
C        -0.46159623368842   -0.01754692038954    3.43662332874433
C         0.46867391546634   -1.08303999177938    3.62359417457665
C         0.36113262473985   -2.17510397957958    4.62904293601509
C         1.61562042639748   -0.82922796626126    2.78769754273610
C         2.91613491562800   -1.55440892670462    2.86057917895173
C         1.41145594727744    0.41941977786785    2.11705809113254
C         2.42848202226204    1.14290006452216    1.31095692285416
C         0.10413216464417    0.89948133854856    2.47043601307355
C        -0.42525335231123    2.22126226804271    2.10573789913216
C        -0.83166943792593    3.11406241852157    3.09560221539764
C        -1.29358451287227    4.36305190786064    2.72363066806142
F        -1.67762587207130    5.22246933485588    3.68711270701157
C        -1.38400866993983    4.76363567974092    1.40190847615467
C        -0.97438380816900    3.85365483908272    0.44258913325885
F        -1.06321147033696    4.20087140093319   -0.85697076379688
C        -0.49548873072045    2.59754811071730    0.76365376582968
H        -2.37747245079428    0.89145528285449    3.69840306214810
H        -1.50301205133642    0.53765306724385    5.19279265256943
H        -2.26539668917264   -0.76949546834191    4.30124364523555
H         0.82617380974723   -3.08782654434199    4.26480974586788
H         0.88329726396888   -1.87113485345724    5.53674831363875
H        -0.67506827975232   -2.37472762354478    4.88443377816978
H         3.51229031497355   -1.12799563924334    3.66826845931607
H         2.77031995911730   -2.61021858608446    3.06887290508790
H         3.47193784080356   -1.44983806191200    1.93407690437746
H         2.54561019777403    0.68350037287914    0.32978652672851
H         2.13617941215690    2.17963002788312    1.16717872091588
H         3.39121206294553    1.10429289670402    1.81696039534175
H        -0.76355269115132    2.86310473524131    4.14091327929811
H        -1.74910066346997    5.74071284680579    1.13302676464385
H        -0.19160658412501    1.91813079822796   -0.01867630093865
C        -0.23031318711029   -7.58696844724698    3.43319268000221
O         1.03910870412182   -7.29011373685113    2.87686303075171
C         1.20299803870101   -6.13852608918044    2.20392038378267
C         0.22732829237245   -5.16626212394366    2.00797701641846
C         0.52366094659179   -3.99840688598835    1.30100719154639
N        -0.46888601484178   -3.02856084237673    1.09374771653278
C        -1.63282143874601   -3.37594888891459    0.64294458560708
C        -2.58603389165017   -2.33179738194793    0.42517281075849
C        -3.84450198917917   -2.51689232460321   -0.15706727569673
C        -4.63590361948180   -1.41718339976338   -0.39182944289042
Br       -6.35427657001277   -1.57857007833533   -1.18225064285444
C        -4.16996336997603   -0.12555530610240   -0.05280399982626
O        -4.96524247258826    0.89782829536812   -0.32725223719867
C        -4.52788459584160    2.22517811955040   -0.08013466220081
C        -2.91302453820349   -0.03967471082876    0.55206378629943
N        -2.15300461520832   -1.10285507377748    0.78561002902900
C         1.79446921262095   -3.78280952617494    0.77922431509595
C         2.76947043148818   -4.75100757383797    0.94845700015624
C         2.47454503497456   -5.89978033826975    1.65106338590218
F         3.43452133519135   -6.83102122398019    1.82081979664706
H        -0.99487325051173   -7.65432365855743    2.65562578270368
H        -0.51538237343735   -6.84436814036792    4.18210424005238
H        -0.11293129135551   -8.55711335859695    3.91087537072272
H        -0.75987678145250   -5.29122480425112    2.42173884092034
H        -1.86285074342148   -4.40348211164984    0.38817236823177
H        -4.17788454170250   -3.50456094303684   -0.43154444149445
H        -4.36777605452379    2.39311766850120    0.98676985576634
H        -3.61544570180771    2.44597362490139   -0.63781724429836
H        -5.33499044377605    2.86321199122171   -0.43295273131225
H        -2.50706949173642    0.91730853747072    0.84351436814884
H         1.99409160339205   -2.88710560784749    0.21433692371369
H         3.75930785456998   -4.62566250451756    0.54096003296157
Cl        0.35142585217421   -0.77856165476003   -0.81770608766162
