76
 energy: -101.372758993218 gnorm: 0.000181212789 xtb: 6.4.1 (afa7bdf)
Ir       -0.57190116507847   -0.93317104803462    1.40835227113012
C        -2.41306114924579    1.47097166498142    3.10157404643086
C        -1.19591864937585    0.62160542310337    2.95274635938940
C        -1.10136301251240   -0.69470134680946    3.54919744057652
C        -2.18296219666310   -1.36177877059134    4.33108273553705
C         0.27237227374635   -1.08807181674626    3.55069269093208
C         0.80509744109067   -2.22745535293292    4.35188783492998
C         1.00125018138170   -0.11390303626174    2.80290095627879
C         2.48823270009787   -0.01222020590253    2.69089945985828
C         0.09142388394069    0.97718629489232    2.47278320458647
C         0.59732122823604    2.31923829431098    2.01521837398881
C        -0.12574818298449    2.95133733564148    0.82226930116959
C         0.55982377612199    4.26072008398483    0.43932712800744
C         0.56183319277481    5.23136488425847    1.61756487440310
C         1.25622442381626    4.60400761383248    2.82309847556110
C         0.58161238980059    3.29068328703725    3.20868495718770
H        -3.31715881793281    0.91061755229739    2.87478369098933
H        -2.38137323604072    2.34989810393875    2.46909558021606
H        -2.47732934875139    1.79408248910589    4.14192033584928
H        -2.02051459355346   -2.43490326366604    4.38415595409844
H        -2.18792679839170   -0.96831301797163    5.34852768056865
H        -3.16019457570488   -1.17258039322608    3.89475805969261
H         0.56169930971434   -2.05048335245228    5.39993562249435
H         0.35052638615166   -3.17344877323037    4.06482278936805
H         1.88411309894651   -2.31097243986199    4.26632194250509
H         2.97631551176490   -0.93655569795870    2.98209745131323
H         2.78742356759345    0.22597411089383    1.67275875695130
H         2.84470294300015    0.78376992247044    3.34553080526091
H         1.63890449530847    2.18740616360218    1.70813611941814
H        -1.16628612704947    3.16616304563541    1.06665576993959
H        -0.09466157735936    2.26324871756088   -0.02380272829032
H         0.04365001709577    4.70983783949987   -0.41166690887764
H         1.58861464970758    4.05972697191386    0.13172383344751
H        -0.46722290845496    5.48640345789206    1.88231260868412
H         1.07007609798450    6.15578103248896    1.33627817218457
H         1.22744385345427    5.29269615453724    3.67023029279098
H         2.30529410887608    4.42003375666000    2.57965585390931
H        -0.44765669355891    3.48822911569896    3.50924628019088
H         1.10068381578872    2.84280962809128    4.05847724849174
C        -1.56547375542740   -3.48606933469357    0.72536295114088
N        -0.42177450944480   -2.90541615012800    0.86640543599746
C         0.75696177584556   -3.70102586125990    0.57247301513312
C         2.05311724029479   -3.06193740343492    1.04429035192889
C         3.22284887193405   -4.03708601742559    0.84939832117751
C         3.04155054391081   -4.89821336728548   -0.40682005103116
C         2.24207425013334   -4.12924183842639   -1.45188574227694
C         0.81071534591982   -3.88895014819421   -0.96404436817458
C        -2.73718465796449   -2.66472812365093    0.63259398705333
C        -4.03238210648052   -3.18069139870354    0.43898838390137
C        -5.06322765884863   -2.31443574158824    0.20187010271784
C        -4.79296388142354   -0.93495221223478    0.07778216605912
C        -5.78507314140100    0.00589986425387   -0.26260304143471
C        -5.46484613873051    1.32538455246841   -0.43756265883319
C        -4.13622750291075    1.75630358337361   -0.28839806775007
C        -3.15317157863016    0.87515677366670    0.07239055614579
C        -3.45453196622728   -0.48345727505328    0.27959109795556
N        -2.47484463130108   -1.35154118959404    0.62540100270571
H        -1.64474913105733   -4.55417318431089    0.55276759241219
H         0.64386606587537   -4.67822459375924    1.05773695433379
H         1.97522386036015   -2.80434555323697    2.09543471341237
H         2.21399332490323   -2.14850943859221    0.47297623288609
H         4.14620543802840   -3.46253821725209    0.77201132441150
H         3.31451096002288   -4.68713621679994    1.72114749309204
H         2.51419199460036   -5.82268994887867   -0.16306051976962
H         4.01565551392066   -5.17814835948351   -0.80920180061111
H         2.73581337572533   -3.17773118794785   -1.65063314951908
H         2.21019459316223   -4.68399433538172   -2.39045551273985
H         0.17069833002819   -4.72705146252849   -1.24315788332053
H         0.41588695266489   -2.98935125765624   -1.43836740874412
H        -4.18601367638684   -4.24622932693422    0.48528434534313
H        -6.07438076598695   -2.66919674596957    0.07535717242729
H        -6.79794888190653   -0.34020955203322   -0.40041850206581
H        -6.22768424500513    2.03924164485837   -0.70645293275761
H        -3.89358280816899    2.79212397953550   -0.46734776480677
H        -2.12437898503880    1.18311686838006    0.16290508433391
Cl        0.25891527127220   -0.34523125278245   -0.74138020193105
