82
 energy: -118.066791081005 gnorm: 0.000316442276 xtb: 6.4.1 (afa7bdf)
Ir       -0.72777168149843   -1.55122498361379    1.07163101033620
C        -0.96625416740889    0.96271289396260    3.39437554717494
C        -0.13644894234978   -0.00636945239559    2.62083044216106
C         0.14708780801772   -1.33762754922243    3.10191048356084
C        -0.30043910717630   -1.88621948350496    4.41477346961430
C         1.17643068780851   -1.90209946393899    2.27269443510439
C         1.93711450262598   -3.14452481071654    2.58293955023736
C         1.42393448876937   -0.99159165543663    1.21144046713081
C         2.49438436313647   -1.11746059325963    0.17955977652413
C         0.61187773436970    0.20156707552120    1.42978993175956
C         0.81539092605023    1.47557652353302    0.65429140855997
C        -0.46349545105790    2.08630454021471    0.07083637998162
C        -0.11069034910739    3.30165018241896   -0.78208884474832
C         0.63027465805325    4.34356543166841    0.05271144935066
C         1.88948520804296    3.74114016420629    0.67087044981329
C         1.54686134945439    2.51700637066587    1.51598682750722
H        -1.88747588717510    0.50014867136447    3.74270335712786
H        -1.20947885624048    1.84671897574248    2.81622225006528
H        -0.40088904851234    1.27400494055225    4.27381645278122
H        -0.27329456872624   -2.97231373941268    4.41425245470936
H         0.37022218429192   -1.53180406405055    5.19842417809444
H        -1.30715509340061   -1.55839319774950    4.65813135722529
H         1.30077622321536   -3.89759647031597    3.04049672150832
H         2.39117791961208   -3.56922273227805    1.69247032342751
H         2.73191075417002   -2.89801205202668    3.28793277178014
H         2.86041869003088   -2.13856100152202    0.11704031190242
H         2.12517260097820   -0.82364312693123   -0.80098223126986
H         3.32984015538567   -0.46704955708310    0.43944901094015
H         1.46279448178166    1.23748460077013   -0.19499176609565
H        -1.13675215569270    2.40779765433137    0.86577310417388
H        -0.97367701467500    1.33836089713857   -0.53780556454127
H        -1.02160895180089    3.73769397657119   -1.19736953419560
H         0.51834179335837    2.99107260512543   -1.61934834780415
H        -0.02587564322791    4.70729629967008    0.84703256002852
H         0.89804692949663    5.19808281892282   -0.57216636117816
H         2.39107348731085    4.48630995580834    1.29180960636479
H         2.58002954475662    3.45371519444767   -0.12540894676067
H         0.91531245706918    2.82027952697634    2.35125897889520
H         2.46063506052147    2.08227288833603    1.92570452126146
C         5.86164489070470   -4.34326456306450   -5.09022941065558
O         5.95650215316163   -4.96768598776509   -3.82710158764611
C         4.84972510012032   -5.02702749950191   -3.04000417436778
C         3.60320964792130   -4.50028169798875   -3.36601114795208
C         2.54800145196469   -4.62054100653332   -2.48024411673412
C         2.69594324979419   -5.27438977697252   -1.26076978349324
C         1.55823854812522   -5.41704981378238   -0.34192770328615
C         1.37105768021346   -6.58870697527059    0.39457893868820
C         0.29001645749234   -6.72240758228656    1.24795349929688
C        -0.63028807535661   -5.69894499663391    1.38554601576144
C        -0.44790097056552   -4.51978379683142    0.66365309224145
N        -1.34834470404714   -3.45264928229486    0.78888213348617
C        -2.62162477380807   -3.66049188852492    0.70155477513394
C        -3.47202196783791   -2.51035776779581    0.82838985076831
C        -4.84719732521078   -2.53488784521113    0.67128245105320
C        -5.57717689404664   -1.34232746335968    0.76433133435387
O        -6.89301871191432   -1.42736443399563    0.60657678263717
C        -7.68636680618585   -0.25025855046053    0.67643176391500
C        -4.85454336395225   -0.16439147773915    1.01203633834973
C        -3.48489224247843   -0.22862992228142    1.15550502883145
N        -2.79254625915782   -1.36154088704923    1.08285418057928
C         0.64232893988121   -4.38110194612590   -0.18933806639752
C         3.95015683124651   -5.79886389254024   -0.94154252783296
C         5.00993028398514   -5.67344441971443   -1.81083146072367
H         5.58652857974388   -3.28879385683548   -4.99443532604347
H         6.85508722188332   -4.41953295541381   -5.52836041138777
H         5.14063935109320   -4.85520524877167   -5.73469220975790
H         3.44140554229562   -3.99905921281152   -4.30709876161628
H         1.58607796977849   -4.21845302778733   -2.75987624001209
H         2.06736720907106   -7.40461534414856    0.28136847216679
H         0.15939967733265   -7.63533771844756    1.80821143607735
H        -1.46412807377514   -5.79328433585757    2.06368381086799
H        -3.03055223576340   -4.64234770321808    0.49397555510020
H        -5.36292774613444   -3.45741451654355    0.46385495453231
H        -7.40420959231666    0.45944840604565   -0.10404592394416
H        -7.60586305355315    0.21925631053770    1.65902002431148
H        -8.70916091096785   -0.58232916443513    0.51400759936556
H        -5.34289024590467    0.79201625759557    1.09016566684367
H        -2.91804626924206    0.67188359141250    1.33516744330504
H         0.75197381124471   -3.46368103319223   -0.74678172421916
H         4.10286429412574   -6.29101811494793    0.00714194019437
H         5.98192496931048   -6.07178203854370   -1.56637680848961
Cl       -0.94161572841903   -1.29812107557571   -1.29894069589850
