80
 energy: -125.770366201554 gnorm: 0.000603266266 xtb: 6.4.1 (afa7bdf)
Ir       -0.20758998764324   -0.93275647179509    1.56493241298049
C        -1.64117044071230    0.37184028483515    4.33069222622519
C        -0.40193334514204   -0.04033532394100    3.61264825029378
C         0.24471555131637   -1.30424941828262    3.76938700108211
C         1.46530121468085   -1.27768047774624    3.00684118052471
C         2.53188453107707   -2.32205048253602    3.02824866860437
C         1.61775777861715    0.04179929244628    2.46223094001622
C         0.43928833845551    0.79457758658921    2.78670160750632
C         0.25403363943805    2.22714437609345    2.51826940221003
C        -0.02685056876824    3.11304703442673    3.55771351739269
C        -0.15814482400166    4.46477450824525    3.30786863281984
C        -0.01193553194647    4.97377549801957    2.01822086907223
C        -0.12354563657412    6.41792089755122    1.76559676089120
C         0.77115319197372    7.05615447815248    0.90886164662894
C         0.68388238336829    8.41873982787841    0.68989133174160
C        -0.30289268089742    9.16347943021704    1.31544890312555
C        -1.20314340846251    8.53701418526485    2.16214918936087
C        -1.11217279978039    7.17606208328526    2.38943374186614
C         0.26084763384844    4.08324537644845    0.98020482237882
C         0.39324014502570    2.73063752766731    1.22400763157267
C         2.84472039671703    0.56905907993438    1.80880239132622
C        -0.17109668303030   -2.34392805767312    4.75239412756094
H        -1.39835710034080    0.58099143657741    5.37335005344802
H        -2.38044853759556   -0.42556092615896    4.31985573627540
H        -2.07238960821781    1.26720563127590    3.89228549350964
H         3.07857780575873   -2.26641819103202    3.96989863236213
H         3.23082072173325   -2.16897824736237    2.21126260790309
H         2.10479987427411   -3.31791895864006    2.93440740453041
H        -0.10645543986569    2.74657304452905    4.56887745333265
H        -0.34600513557953    5.14176122886657    4.12730362031904
H         1.55446615066698    6.48608004648078    0.43066401805378
H         1.39008235686518    8.90323814560978    0.03125770816996
H        -0.36895430185898   10.22793959018598    1.14434642299638
H        -1.97651013670880    9.11344366292180    2.64872334683312
H        -1.82502255125642    6.69335022192309    3.04175339098719
H         0.36082870313682    4.45519772198371   -0.02869947725803
H         0.59016645737746    2.05077271316388    0.40789539078408
H         2.99531299466820    0.11186576820556    0.83137843428558
H         2.77331799031134    1.64522911245015    1.67426250709138
H         3.71220774239492    0.33893975937191    2.42580518846237
H        -1.20932359888436   -2.63829790705952    4.61540770109986
H         0.46867709674758   -3.21826273980579    4.69188141566129
H        -0.08178552621653   -1.92389198549717    5.75523314674832
C        -3.57987749536858    3.49216666557177    0.60247696840404
O        -4.09913529876023    2.45322430248426   -0.21330597966079
C        -3.55323431486286    1.24291113999970   -0.16940186507530
C        -2.49048325879750    0.86197279211032    0.64995937936168
N        -1.98228236154451   -0.36692860386540    0.65119907430530
C        -2.50358826554008   -1.30721396859442   -0.16944279222330
C        -1.84421093269636   -2.57308743087067   -0.10679744773044
N        -0.86588108604550   -2.70226259992164    0.73580274992746
C        -0.11324496611757   -3.88000782844445    0.73640600986056
C         0.10495127594929   -4.57583307750135    1.91702006692694
C         0.83014031705558   -5.75614007621840    1.90384151249832
C         1.37869149011976   -6.24337804081956    0.72527574560131
O         2.11096912544548   -7.36867530964020    0.61010805445384
C         2.36379576839880   -8.14363877764105    1.76629591167314
C         1.17135303647992   -5.52326073379873   -0.48419275810112
O         1.75328516407982   -6.05805660680682   -1.58134581270732
C         1.60210721944850   -5.39705726698768   -2.82117350972392
C         0.41258521453329   -4.37012399727259   -0.46730154159642
C        -3.57918758709607   -1.01777944160981   -1.01746557654710
C        -4.10081839959723    0.25292817807579   -1.01750042138417
Br       -5.55440440724238    0.72897041946176   -2.14291695963702
H        -4.16499619210195    4.37341471457526    0.35038834612407
H        -2.52492845306107    3.67705818097353    0.38743262472356
H        -3.70931668478996    3.25747869069516    1.66096736718583
H        -2.02832397578971    1.57732749826552    1.31299794262764
H        -2.15128863455635   -3.39051057977634   -0.74799745193450
H        -0.34355755164912   -4.22654194928611    2.83041949412523
H         0.96226078285694   -6.29705989122944    2.82628258086281
H         2.93334881704929   -7.57668434773722    2.50748921432127
H         1.43356511961299   -8.50839794998327    2.21021908976175
H         2.95675364086835   -8.98897833448995    1.42329692973812
H         2.00720611313311   -4.38194648655948   -2.78395501085121
H         2.17154625706032   -5.98824586413226   -3.53538014481195
H         0.55321500885167   -5.36607273759834   -3.12959390254455
H         0.25967620496025   -3.79443401970963   -1.36529431980356
H        -3.97859440314648   -1.77934633659616   -1.66729010887780
Cl        0.71753785802369   -0.63451768795139   -0.60576391001117
