83
 energy: -118.749896788089 gnorm: 0.000306983388 xtb: 6.4.1 (afa7bdf)
Ir       -0.44358507710782   -0.24772763031616    1.68349063184516
C        -1.93994967122921    1.68275102962166    4.10042224826877
C        -0.77873936062828    0.85768474689799    3.66179074373577
C        -0.66795801549051   -0.56727534516372    3.87136835792857
C         0.66288755144981   -0.95610241976785    3.52821150728706
C         1.30706868614815   -2.25959823702577    3.84200354349218
C         1.32263703819538    0.17777503420276    2.95777522992989
C         0.43672406797621    1.32231454840316    3.09527352189546
C         0.83792843747101    2.72595068422070    2.91824752692352
C         0.75116847231771    3.59972836106522    4.00122614970209
C         1.15569379890365    4.91337416755952    3.87460905231593
C         1.65799603075484    5.39406906499803    2.66644067795664
C         2.08875251679772    6.79381390130465    2.53454569509565
C         3.24502473157747    7.11629617715145    1.82683914969664
C         3.65270595580748    8.43215923150338    1.70665144560587
C         2.90972942858099    9.44797434935887    2.28595496255389
C         1.75717817926846    9.13894973823079    2.98994323051309
C         1.35131777932064    7.82317798084099    3.11640492792871
C         1.74182153740472    4.51586286948799    1.58684507203005
C         1.33900223120572    3.20063906020604    1.70803753166454
C         2.77079796094477    0.24631958337475    2.61656766565338
C        -1.66669976227159   -1.39476681593229    4.60925446945333
H        -1.99905787977619    1.66384956108323    5.18908792551622
H        -2.87585395195226    1.28361352030135    3.71375373187782
H        -1.82572175371169    2.71240054549248    3.77493221625460
H         1.78442684586466   -2.18094042469131    4.81982223127496
H         2.07426221947475   -2.50998355389124    3.11423397453286
H         0.58090659855598   -3.06656938755534    3.88455987431699
H         0.39119852707594    3.23971235472034    4.95305436873821
H         1.10439324271422    5.57126853078579    4.72919878498686
H         3.83974597558393    6.32941513401225    1.38607384611393
H         4.55507168033642    8.66741583845257    1.16076010097559
H         3.22807942880670   10.47567833550987    2.18968434683173
H         1.17297613947575    9.92805584150474    3.44105051056366
H         0.44365858366003    7.59302277640445    3.65487822322276
H         2.10669578186122    4.87413045886165    0.63592629103046
H         1.37806903052748    2.54403747320967    0.85185768183462
H         3.09573543025668   -0.65883892205590    2.10915783979087
H         2.98094424556629    1.10325201688168    1.98331474230842
H         3.35010306080328    0.34785997206896    3.53539500216813
H        -2.68079271892511   -1.07548379638744    4.38313275986994
H        -1.56525778623615   -2.44793531081237    4.36121568759205
H        -1.50791534632176   -1.28358981594729    5.68263970134468
C        -1.73000398821232   -2.48592249349935    0.55027947382477
N        -0.54456686713827   -2.08141511194269    0.85145237001832
C         0.54598721070369   -2.95835539103987    0.76592311975570
C         1.76825338719740   -2.49784991313428    0.27727567482433
C         2.84386350751050   -3.36178705405264    0.18625665143123
C         2.72092262058902   -4.68090998702749    0.59613796950393
C         1.51213559873473   -5.13659317911816    1.10061934972657
C         0.42661775037902   -4.28554099893825    1.18531999067897
C        -2.83787349857860   -1.57920870839984    0.66782308713940
C        -4.13470449061785   -2.04610509785355    0.55681757375193
C        -5.17002106085888   -1.14397997294368    0.80272750268893
C        -4.86289401308381    0.17951940476511    0.93972466510533
C        -3.51388385545567    0.64156817651630    0.81585292878226
N        -3.30282835054325    1.94901102272306    0.63479147605539
C        -1.99878028775542    2.57980808588917    0.62046805670532
C        -2.11398045830781    4.02324066378762    1.09678705794935
C        -2.90785077193640    4.85826536683573    0.08834855962409
C        -3.90163379834588    3.95693895879222   -0.64798655114839
C        -4.40292865232908    2.83179612478536    0.25428625690364
N        -2.51142388423708   -0.27269263252236    0.88019758508496
H        -1.90862256990395   -3.48702004970042    0.17225033508940
H         1.84972046438181   -1.47541216868253   -0.05593001506597
H         3.78253036359476   -3.00276210178156   -0.20692756712306
H         3.56442560465352   -5.35017074638396    0.52805198509901
H         1.41527620924018   -6.15867494042784    1.43264801111760
H        -0.50485770457997   -4.63723745723333    1.60259899980591
H        -4.32458442252127   -3.08569395965707    0.35467458751598
H        -6.19033829611259   -1.48410947424394    0.87939135375911
H        -5.63878506676111    0.88801357782714    1.16994117510491
H        -1.33073335772659    2.02153448153891    1.27427303417707
H        -1.56794867376834    2.54803516374172   -0.38465489947251
H        -2.61516722632869    4.03799565069646    2.06538367025370
H        -1.11430318389368    4.43322016588581    1.23404406756120
H        -2.23599856820432    5.32260056640669   -0.63326944090006
H        -3.43344385047797    5.65972563166545    0.60825415939299
H        -3.43110920967510    3.51751950833403   -1.52810416489636
H        -4.75910071866475    4.53571661948813   -0.99124106808930
H        -4.87208862156597    3.25833503014063    1.14778035351439
H        -5.14862559774763    2.26077028509773   -0.30122616916969
Cl        0.29951345723785    0.49695772562755   -0.46232138868121
