68
 energy: -104.070660902551 gnorm: 0.000226396208 xtb: 6.4.1 (afa7bdf)
Ir       -0.02812543059984   -0.68547683671412    1.47398877649218
C        -1.60705197210123    0.65755811059137    4.10685156572850
C        -0.32297692342237    0.22994307186428    3.48234170847357
C         0.30813636441185   -1.03976456612276    3.66068600814719
C         1.58546236857280   -1.00178216702733    2.99552834094535
C         2.66627334146874   -2.02137805169794    3.13221510378098
C         1.76273599592613    0.30911751634377    2.44923960553238
C         0.56457826673474    1.06056767368491    2.69965332338645
C         0.39849803045742    2.49029128758378    2.40738755365150
C         0.04634897128626    3.38830487390171    3.41374205997556
C        -0.06898284433762    4.73642107888562    3.13781448841704
C         0.16256625036834    5.22880812437592    1.85403981104733
C         0.05397664782009    6.66710441379482    1.56819415802459
C         0.98872236316877    7.29748642791582    0.74896622339928
C         0.89555111532808    8.65214479309997    0.48801886980882
C        -0.13633398853688    9.39784405943296    1.03463073792910
C        -1.07369642140012    8.78025977904194    1.84673735861116
C        -0.97802042855536    7.42707306155368    2.11505730631586
C         0.51086071811725    4.32619528459345    0.84980041564321
C         0.62850960765703    2.97788648656723    1.12008242948897
C         3.01715357042319    0.82936428360583    1.84376535792076
C        -0.18099432083112   -2.14758875622727    4.52733342128600
H        -1.43280829954489    0.90067215107237    5.15567211210925
H        -2.34633160653595   -0.13922882932258    4.07225054620969
H        -2.00778160896288    1.53782885748945    3.61160601432264
H         3.24955977373821   -1.80227769182402    4.02758443494719
H         3.33456829630042   -1.99619656201336    2.27644638326882
H         2.25636439168537   -3.02230507270560    3.23194515297347
H        -0.10314524327074    3.03465665991708    4.42165623658216
H        -0.31565650075938    5.42287308730553    3.93381032481192
H         1.80682139748690    6.72782309728332    0.33265191103081
H         1.63210489815024    9.12976465231188   -0.14186234688142
H        -0.20888789901872   10.45575362709358    0.82885338212418
H        -1.88229084134834    9.35698024415411    2.27209763364484
H        -1.72145791690515    6.95203177492502    2.73833691972494
H         0.67670690549510    4.68415848362419   -0.15505449689730
H         0.88287371148701    2.28899626425568    0.32780072280726
H         3.13839589012120    0.46272221435983    0.82457111090281
H         3.00182979280548    1.91595061971863    1.81268271458219
H         3.87351552563158    0.49408268706810    2.42557578334674
H        -1.26182233791371   -2.12125896536808    4.63143139638674
H         0.11737587602690   -3.11608209952256    4.13329457363496
H         0.25845018208118   -2.03911526552697    5.51956961188981
Br        2.31639748196204   -7.69702598010381    1.76582193021162
C         1.35868809691910   -6.05737537499940    1.47619353959611
C         2.01772236721354   -4.96805321436568    0.92302085186297
C         1.32906897745994   -3.78745568773460    0.72623157801722
C        -0.02191658956937   -3.70048165494382    1.06094680230638
N        -0.70786635949789   -2.49918659944935    0.83482588544690
C        -1.82085031105758   -2.50384679889451    0.17351156942887
C        -2.46305766400550   -1.23710150764475   -0.02856202932630
C        -3.62866867855210   -1.05262672932225   -0.77314660876100
C        -4.13309419633233    0.22639246287423   -0.92004590559245
C        -3.45493768027734    1.28547311599263   -0.32631144285961
C        -2.30042884793079    1.03070810427457    0.39471036241404
N        -1.81597120808369   -0.19682638375447    0.55127524336198
C        -0.67469792311565   -4.80422424237321    1.61117763150109
C         0.01869014705133   -5.97984619265712    1.82746564070222
H         3.05836666979286   -5.04414635428740    0.65166019570009
H         1.81535066513843   -2.93329898886879    0.28142991319269
H        -2.23082960309868   -3.41368071491727   -0.24992787822040
H        -4.11152726418049   -1.90335662534494   -1.22624346521142
H        -5.03258735488139    0.40029913549017   -1.48930070973802
H        -3.81290652938250    2.29759315727839   -0.41899262877811
H        -1.74553902283360    1.83644097440591    0.85469841999262
H        -1.71396343363256   -4.73252890681520    1.89218117368402
H        -0.47738458956443   -6.83250415227399    2.26208222994823
Cl        0.92578018138639   -0.44394072433768   -0.69310304446401
