61
 energy: -94.932574679235 gnorm: 0.000267449571 xtb: 6.4.1 (afa7bdf)
Ir       -0.73109995338938   -0.82367878686181    0.85758984535234
C        -1.88856216317544    1.36162484604006    3.30446183330389
C        -0.80644669786432    0.51757828022373    2.72290497665702
C        -0.59026797273470   -0.86634977861248    3.07619612113095
C        -1.39463961365792   -1.62755216611807    4.07485259719537
C         0.69550180740967   -1.25933268499166    2.56264138876792
C         1.42753004129219   -2.49937470540998    2.93987809245796
C         1.19519014262729   -0.18690654956113    1.77320202223775
C         2.54385023218250   -0.08594167886431    1.14818894911355
C         0.26463779742026    0.92669761656949    1.88676987129741
C         0.56424226879112    2.30133040243684    1.38963147189337
H        -1.69937099975121    1.47805842462873    4.37190980431491
H        -2.86373625921725    0.89472340368140    3.18861509519054
H        -1.91856128082157    2.34700849324042    2.85148857382083
H        -2.43600788884252   -1.31865762083156    4.05553373790162
H        -1.34182851273369   -2.69762177830595    3.89080232820664
H        -1.00187424270950   -1.43759596069889    5.07448425625388
H         0.74691429550135   -3.32801060058603    3.11666436690337
H         2.14392794174284   -2.78727385409817    2.17580189836010
H         1.97302184472165   -2.30890939802358    3.86510093632289
H         2.48305182400227    0.42344863178535    0.18927547795528
H         2.98335014060710   -1.06703505889276    0.99575682478104
H         3.20064434006949    0.49283537008908    1.79804489949420
H        -0.25807450150297    2.98495492144400    1.57906649648945
H         0.77164958017189    2.28700737586216    0.32075593907173
H         1.45244622690239    2.67899930019174    1.89588870049282
C         4.66015499573731   -4.47370534227915   -1.17072267771909
O         3.52999253799587   -3.63032236951767   -1.03127237644269
C         2.41155066280938   -4.11830347603887   -0.46048824659503
C         2.27661552954155   -5.40104533080404    0.07473709381595
C         1.08130825594150   -5.78752460851563    0.65741288876531
C         0.01558001323141   -4.91420016884805    0.69208420044650
F        -1.13681379146979   -5.29492842600880    1.29525278253724
C         0.11876547619728   -3.62384828178386    0.15929946144611
N        -0.94768218414737   -2.71795739132362    0.19666680955673
C        -2.14053602138419   -3.09129345012465   -0.14546624032423
C        -3.15763311463990   -2.08642179475107   -0.13345796079877
C        -4.49240644906135   -2.34133734685652   -0.50682477939272
C        -5.38441485969106   -1.30766538822827   -0.53261180936665
C        -4.93164640080909    0.00312924211023   -0.26709431440281
C        -5.77620254041477    1.12641125322642   -0.36192511801618
C        -5.28518002937239    2.38911078803741   -0.16451631180806
C        -3.92375726512461    2.57768690554438    0.12247508098177
C        -3.08187267737185    1.50604848135977    0.25152700952791
C        -3.56124964534418    0.19354690638183    0.08195025447044
N        -2.72374695694473   -0.86490584178337    0.21497030617298
C         1.32797433244295   -3.23816101264311   -0.40295104862128
H         5.40755652932620   -3.87015096590948   -1.68111239850739
H         4.42678984323832   -5.35261662453343   -1.77646766405125
H         5.04587292268229   -4.78475370959824   -0.19643594526758
H         3.09240673847394   -6.10341909710040    0.04901531133423
H         0.96917560137680   -6.77065452572840    1.08556672363343
H        -2.35695388221088   -4.09407640790591   -0.49437314886907
H        -4.78190999610679   -3.34951638963899   -0.75317861704558
H        -6.42196722443256   -1.46980394247677   -0.78084190591950
H        -6.81416488544228    0.96947198705765   -0.61204192028507
H        -5.93542274979655    3.24586302488260   -0.24743316832468
H        -3.54160261929219    3.58036793729330    0.23342865867924
H        -2.02744264922368    1.64332674022233    0.42792874905181
H         1.42386923479173   -2.25331070128615   -0.83211697708457
Cl       -0.20118512854245   -0.10115711677018   -1.35544320654855
