64
 energy: -88.897761518550 gnorm: 0.000555895923 xtb: 6.4.1 (afa7bdf)
Ir       -0.13281300717187   -1.07743548536655    1.97527493372851
C        -2.38903676513076    0.78143115557933    3.94525738185335
C        -1.06380697414739    0.14266589324549    3.73206214079470
C        -0.76832601431797   -1.21581451891526    4.11956259078693
C        -1.73763109820248   -2.13300563636609    4.78401841258290
C         0.65753110154506   -1.39337458861494    4.06353683486971
C         1.42709682417732   -2.48024166261889    4.73253884815522
C         1.21709437564401   -0.20499612586730    3.49810085120668
C         2.66305296295689    0.13296076295601    3.39437676747066
C         0.14135603535811    0.74906781676093    3.29819150332035
C         0.37526532183310    2.17860575311372    2.94763302414620
H        -2.60324662322706    0.77775950775612    5.01455671907292
H        -3.18400199539355    0.23185053028235    3.44677111732073
H        -2.40125747494223    1.80598725795372    3.59056747579110
H        -2.73787222221019   -1.99906075182913    4.38204902657814
H        -1.44654067823632   -3.17289097201857    4.66602083912454
H        -1.76973127581175   -1.90856499440258    5.85098718627326
H         0.83305116271446   -3.38185147723930    4.85130150590376
H         2.34837426537716   -2.71022800166731    4.20449206392393
H         1.69868425933369   -2.12947219627372    5.72963552840581
H         2.87432745358861    0.63805409828007    2.45445530023761
H         3.28686061223875   -0.75255365071619    3.47041185074297
H         2.92654432260065    0.81197265049640    4.20588563046750
H        -0.56005850121676    2.71132523701317    2.81131386271606
H         0.95994085215152    2.25492012947429    2.03326772664210
H         0.93998309176505    2.65723237305776    3.74767655361364
C         6.71068875339777   -3.31902108713798   -0.48406485320895
C         5.28068288952659   -3.77010207494692   -0.20511686471085
C         4.96850949469870   -3.74578501398716    1.29053790633819
C         3.57881158246100   -4.28508308429810    1.63507988983916
C         2.45724165409161   -3.35547626181868    1.17581847612775
C         1.08568380093551   -3.88535481741393    1.61818464905485
N         0.04637060491479   -2.96146026662771    1.24011782325111
C        -0.77188338062842   -3.31083821003247    0.30546789741161
C        -1.70641489863661   -2.34081315535544   -0.17479169189242
C        -2.51605298905815   -2.54831517032467   -1.29441506733916
C        -3.30293031196881   -1.51312157543089   -1.74727421105318
C        -3.22573672059893   -0.27617211193418   -1.09601610251282
C        -4.07209390913783    0.77047423524273   -1.52450879677716
N        -4.79062761817454    1.58899512388105   -1.88411754516859
C        -2.35851074394791   -0.12335114857198   -0.00085086128740
S        -2.14223381273591    1.42004355087652    0.80841054786354
C        -1.67722577267510    2.51053764593579   -0.56925804884052
N        -1.66266808059156   -1.15568287577718    0.48066832163441
H         6.92210133428882   -3.35187822417056   -1.55079595729673
H         6.86512672333716   -2.29925589251220   -0.13692905023493
H         7.42369905044878   -3.96473094788394    0.02500707399431
H         5.14345058928598   -4.78431458241416   -0.58759475477808
H         4.59383153191661   -3.11287548071131   -0.74058122168711
H         5.06529329737268   -2.72193843315550    1.65774745909467
H         5.71445824537851   -4.35327425628054    1.80850839947422
H         3.45294187432785   -5.26693024813480    1.17491423742956
H         3.51673291631771   -4.41915135703474    2.71726220574997
H         2.60920243292167   -2.35597685984527    1.58594687832050
H         2.46463826285335   -3.26672706251146    0.08971616366824
H         0.90883648270726   -4.86177040798837    1.15671421448153
H         1.07715209457573   -4.00366468664699    2.70180316382733
H        -0.72748868432256   -4.29062199620181   -0.15830172833254
H        -2.51053826693242   -3.50490343185012   -1.78991739252335
H        -3.96646517063809   -1.63311670435366   -2.58985535207284
H        -2.51560979369680    2.68755060059917   -1.23333134575007
H        -0.83538748998925    2.06603298428737   -1.09100817821128
H        -1.37428019351836    3.44178826811671   -0.10084550585427
Cl        1.10236221023150   -0.21930208773068    0.12401554622679
