66
 energy: -116.307715339857 gnorm: 0.000180677567 xtb: 6.4.1 (afa7bdf)
Ir       -0.47910199463774   -1.18560279700375    1.45214520905886
C        -1.85471270434308    0.24786296601101    4.32547125043584
C        -0.67282520191823   -0.13670180175396    3.51223912294438
C         0.01311167162777   -1.38107212843686    3.67214000026580
C        -0.34140571936389   -2.39285797175399    4.70616487054729
C         1.21302918561711   -1.33362908259993    2.87738984655357
C         2.36317887795654   -2.27668464334197    2.93977790089231
C         1.27821708420034   -0.03895674331558    2.25172334285413
C         2.47473180043622    0.49794464098117    1.55553314867816
C         0.08907797419047    0.68558443282743    2.60572470994985
C        -0.10116984352141    2.11571666998437    2.32557697556386
C        -0.34583680871219    3.00781462548017    3.36712673712469
C        -0.47829199261894    4.35373693419007    3.08032234115109
F        -0.71309520691218    5.20874028067676    4.09547319839614
C        -0.37695330373188    4.85891311642613    1.79673696060566
C        -0.12690793683221    3.94788484211735    0.78530720750581
F        -0.02201056376673    4.40014499957967   -0.48132055272965
C         0.01708620071035    2.59512873563097    1.02152049921353
H        -2.26767811147350    1.20164824226177    4.01722436395553
H        -1.54546601923272    0.31644248007644    5.36971726958202
H        -2.63181136460253   -0.51115531253350    4.27047908673246
H         0.32090338392743   -3.25029566900382    4.66218362710890
H        -0.24042019913979   -1.93272142606252    5.68972643675169
H        -1.37284313606546   -2.72226274418949    4.60576792386688
H         3.05858170112478   -1.92555435359542    3.70332698181433
H         2.04563543126563   -3.28142383204480    3.19798080782260
H         2.88842424742866   -2.30855882365880    1.98935281253111
H         2.63644835502491   -0.00691231837763    0.60435653131891
H         2.36619490433743    1.56156534066100    1.36283458883063
H         3.35436603010838    0.32899287474594    2.17528814029675
H        -0.40864316841780    2.67743214848345    4.39013253912251
H        -0.48597065134320    5.91099906865089    1.59343039595956
H         0.18881712694309    1.92257273792560    0.19563866323711
C         3.32288212530230   -7.87907098284548    2.14648237928194
O         3.09533801707394   -7.10985598779221    0.98014894888250
C         2.16697740322011   -6.13842225084688    1.00703409604725
C         1.37627328053272   -5.80898316559167    2.10071423253582
C         0.45616505837212   -4.77518449329092    2.03179849353863
C         0.28983820034954   -4.07693263030018    0.84428130948867
N        -0.68877510724443   -3.08043180576238    0.72882832853740
C        -1.61005118462630   -3.25284077631901   -0.16678754264324
C        -2.56926520963395   -2.21805706702419   -0.36499402347106
N        -2.43898801029289   -1.12255314761204    0.42823134513090
C        -3.30884750285527   -0.13171847717100    0.24232924251133
Br       -3.18112742592885    1.39506395466117    1.32904951624156
C        -4.33179061287023   -0.15727301859928   -0.69612452957538
C        -4.47689247445689   -1.26807335588326   -1.51398954094189
C        -3.58031685161694   -2.30069517093536   -1.33307257815803
F        -3.65214769430068   -3.40115148781308   -2.08715215278872
C         1.05378600409421   -4.41610484368114   -0.28066463683645
C         2.00320658932865   -5.41578563567259   -0.20942403123714
O         2.81067757162232   -5.79578888196363   -1.22214719734260
C         2.68279230711000   -5.15053000162549   -2.47352822804916
H         4.10753893526130   -8.58356162335552    1.87877471145951
H         2.42500489001637   -8.42983788128126    2.43902773789338
H         3.66262710007170   -7.25194433039619    2.97455851995868
H         1.46565098595639   -6.36568622855270    3.01874943714815
H        -0.18068471816601   -4.55728692903480    2.87191934397266
H        -1.66637256312092   -4.16129331842173   -0.75601238840450
H        -5.00456079190339    0.68140935680466   -0.77663722846940
H        -5.25187057590937   -1.33038190937780   -2.26110288891646
H         0.91234536911213   -3.84621979535938   -1.18422466619455
H         3.42499523584637   -5.61709351124354   -3.11771209575190
H         1.68645910507235   -5.30182233102725   -2.89809969511115
H         2.89194400481450   -4.08038927647485   -2.39393181867985
Cl        0.24897749150361   -0.69352548513285   -0.75337133801556
