89
 energy: -128.940291810272 gnorm: 0.000523828778 xtb: 6.4.1 (afa7bdf)
Ir       -0.49411421188693   -0.56262202184305    1.87219012309808
C        -2.53850162340875    1.46794886825158    3.74562573635408
C        -1.29798939883562    0.65014945685223    3.63549866409671
C        -1.21371130625226   -0.75360894245485    3.96174208373782
C         0.16772781998098   -1.12120206035569    3.96149000480175
C         0.72669202151837   -2.38446875723186    4.51563172172910
C         0.92524124299236   -0.00003940772231    3.49325820517256
C         0.00844327326405    1.11714393626333    3.33370324589375
C         0.41807890147782    2.51871289636106    3.15609034728290
C         0.08128063228867    3.45477807415834    4.13262455482864
C         0.49429262042752    4.76692565492017    4.01609616634546
C         1.25197575056930    5.18368670427958    2.92280186350269
C         1.69828742523578    6.57986794865288    2.80564417342167
C         2.98303360861243    6.87683220592877    2.35465397761560
C         3.40790581247460    8.18868729173798    2.25239937610070
C         2.55513314402536    9.22598800012772    2.59327235248581
C         1.27467954613199    8.94253598979170    3.03980990514775
C         0.85001490225775    7.63105589875831    3.14799121463354
C         1.58024560405117    4.24400313461538    1.94643093835137
C         1.17188742083585    2.92986114365942    2.05913218221304
C         2.40915826504131    0.12779092640172    3.52507237662684
C        -2.34128590702653   -1.56853769349128    4.50097740419222
H        -2.82099704377095    1.54138970610208    4.79646566338639
H        -3.36827213000107    1.00496972089755    3.21502221898343
H        -2.37522146443254    2.46899141207806    3.35774963952751
H         0.88868877118817   -2.24627780650798    5.58577224106894
H         1.68195985886114   -2.62992046671464    4.06294591024453
H         0.03851901505972   -3.21542593469899    4.38813314537464
H        -0.48061788158672    3.14483895898938    5.00063603317276
H         0.24787186495253    5.47433916399712    4.79365468554860
H         3.66073909969012    6.07387042166878    2.10348376037862
H         4.40930980465888    8.40404097572513    1.90820363238912
H         2.88727736103642   10.25060832066345    2.51221431642130
H         0.60508287540043    9.74862307183682    3.30336416305288
H        -0.15539273516885    7.42088550407933    3.48229667820699
H         2.14472584824988    4.55218788461079    1.07908223211843
H         1.40814963688950    2.22213986183864    1.27845124171637
H         2.89627724976409   -0.81411775517113    3.29185961628388
H         2.74799277096531    0.88510017432840    2.82386140192069
H         2.71545692963215    0.43290264279955    4.52709344346197
H        -3.28661097986180   -1.26391198658101    4.05989345906272
H        -2.19006959356796   -2.62761741019362    4.30992061400594
H        -2.40817555902095   -1.42569101931174    5.58017093606411
C         4.27594032337887   -1.04264453148897   -2.22452245001924
O         3.86310771854957   -1.92658465235936   -1.18450214277262
C         2.78126232974707   -2.66694153117726   -1.40931133174440
O         2.15943504161130   -2.67167526943020   -2.44342931205900
C         2.45191426537247   -3.51319899707025   -0.19700131718186
C         2.13970514002693   -2.71495949537115    1.08528147481394
C         0.73981947370737   -3.34888833213256    1.13644079476915
N        -0.38964220246615   -2.44819611958680    1.11865579161972
C        -1.50649343533033   -2.89061875949484    0.66854470889916
C        -2.64467416636818   -2.01400073070129    0.57827544244964
C        -3.90892583818889   -2.52382927449818    0.35330325413851
C        -4.98186362920807   -1.63179210735747    0.39623431358915
C        -4.71812757257672   -0.29329957532138    0.45646708234644
C        -3.37231241896207    0.19258241021079    0.45690270731289
N        -3.15330448186557    1.48516229728745    0.19678333725011
C        -1.85476425496792    2.12404058051948    0.27308474178324
C        -2.01901388398843    3.61082684093520    0.56367987719142
C        -2.68740087633855    4.31944617792809   -0.61773304860660
C        -3.60199340442182    3.33564646523949   -1.35126397688086
C        -4.20298913764079    2.31493430410893   -0.38775237115434
N        -2.37101645343297   -0.68738076964914    0.71568529386968
C         1.03006845983323   -4.09034076320528   -0.18887608973402
H         4.52701491948534   -1.60674275074438   -3.12460841694854
H         5.14720239250523   -0.51811410188267   -1.84227206542852
H         3.47259210090977   -0.34150725575422   -2.45686550824731
H         3.24801482566557   -4.24745875312746   -0.07266546215437
H         2.78369496753567   -2.95627893265264    1.92542850677347
H         2.12382017748449   -1.64031945935266    0.92711322376857
H         0.61337638589353   -4.02907335740132    1.98340623848630
H        -1.61417874670779   -3.91613588127706    0.32923797525699
H        -4.05643976792763   -3.58107385808967    0.21870380853566
H        -5.99774695608986   -1.99279770512821    0.37959265905387
H        -5.52925901357974    0.40948299945857    0.53168416631651
H        -1.30189854600413    1.98114487800685   -0.66044950487410
H        -1.27431355365122    1.65221151992389    1.06473417981808
H        -1.04017482494679    4.04251148975686    0.76875427395373
H        -2.62731708863989    3.73140907433077    1.46100549025296
H        -3.25955526972791    5.17452693526442   -0.25641048097844
H        -1.93455138727777    4.69857703437251   -1.30881021697958
H        -4.41370159240259    3.86663530620768   -1.84851131946218
H        -3.04209107480634    2.80139038700372   -2.11978150940745
H        -4.75831190432825    2.83343093247064    0.40134515906050
H        -4.89125962735105    1.68422197497892   -0.95199429547404
H         0.96569090715926   -5.17383742867922   -0.14083762127243
H         0.44578185332177   -3.72370066313496   -1.03172860988105
Cl        0.67024558439348    0.07878575979570   -0.12133010005674
