79
 energy: -120.303986261605 gnorm: 0.000703394463 xtb: 6.4.1 (afa7bdf)
Ir       -0.68406645371719   -1.02913916911717    1.88702154962181
C        -1.99869122027951    1.64757721530478    3.81038733308360
C        -0.95958046550188    0.62728597936128    3.49924568212539
C        -1.00884480240111   -0.70045793244463    4.08379855867254
C        -2.09334113397057   -1.18443783970702    4.98445963845743
C         0.28154937825915   -1.29578144507779    3.94842765625362
C         0.79212686983281   -2.42992714134736    4.76284888797100
C         1.05226494479461   -0.44870452636367    3.08604616998548
C         2.49376060895857   -0.65023048492247    2.75551764818209
C         0.30404628865735    0.79136962071426    2.88157408005602
C         0.95178785891536    2.04981792345552    2.37651679178584
C         0.21214239494573    2.77163527265841    1.24687888910135
C         1.01792696177724    3.98600115071173    0.79487000349663
C         1.24943940238790    4.94342112877998    1.96096776273278
C         1.96915128709610    4.22844162874420    3.10099494562662
C         1.17253332909232    3.01029436809898    3.55914531420584
H        -2.99998515908424    1.25594353306814    3.64939915734789
H        -1.88392995184346    2.54688176432910    3.21887352295890
H        -1.90952334491191    1.90520045249517    4.86699425286574
H        -2.09960804993147   -2.26895226463516    5.04691252542493
H        -1.92784034978897   -0.78743052246220    5.98682496579451
H        -3.06784752104587   -0.84404912201077    4.64577261717908
H         0.02795995807494   -3.18266610438596    4.93572637605787
H         1.67225480389719   -2.88342924439362    4.31884478212208
H         1.07960235198655   -2.02555008933230    5.73554575327232
H         2.74657389997812   -1.70724002285412    2.76246326176859
H         2.72483617055749   -0.25068447096220    1.77118820587024
H         3.11418713144868   -0.13827798654761    3.49150353777126
H         1.93619711351769    1.77859260548512    1.98361312883888
H        -0.77166074299184    3.10163760189394    1.57940715084650
H         0.08001533618066    2.08154949294684    0.41373047440067
H         0.48727551536898    4.50202584282528   -0.00774086691153
H         1.98133354119098    3.65911817854615    0.39681306118722
H         0.28858442519122    5.32220946216946    2.31739322041840
H         1.84019411568301    5.79896881240432    1.62743856514840
H         2.10567825781257    4.91167775113790    3.94195294109741
H         2.95938830699181    3.91503072125283    2.76279371615083
H         0.21101246311207    3.33835146036268    3.95270921597944
H         1.70855016087889    2.49528559275265    4.35831429621585
C         0.75311951568192   -2.13970695956916   -3.45359239522080
O         1.27826097585764   -2.73306677948503   -2.27017004560348
C         0.40395991417293   -3.18124347793994   -1.38198235301156
O        -0.79808804150581   -3.20500633400572   -1.56244489445800
C         1.07703568829015   -3.77052796891676   -0.18699280092831
C         2.29036217316839   -4.42571234751516   -0.36172074116008
C         2.90803565796347   -5.07824918041104    0.70375179418597
O         4.07342092336463   -5.74467732588874    0.63024127587755
C         4.76138912416833   -5.80680130999466   -0.60670334183951
C         2.27393313146544   -5.07883120604005    1.95355079963583
C         1.09105342099353   -4.40179719275764    2.13984267861338
C         0.49073875576182   -3.71739335631436    1.08611524116636
N        -0.68904351522144   -2.96521915440525    1.26175616331849
C        -1.78058466512810   -3.43431891496070    0.75067336643630
C        -2.87601689991149   -2.53198426989046    0.56571688305640
C        -4.05659921253530   -2.88952960013165   -0.08824391564501
C        -4.96870960047051   -1.90510630428556   -0.40162678520957
C        -4.64441815872692   -0.57604328212005   -0.10634632910098
C        -5.56080018270576    0.45425264354652   -0.41984671372515
N        -6.32419047323637    1.27087363530160   -0.67348405188720
C        -3.42762146067717   -0.28884417218251    0.53180371590102
S        -2.91558691249050    1.37504699900478    0.82116973873222
C        -2.77703324244539    1.95481586918437   -0.89642240245054
N        -2.60060721208585   -1.25492204625097    0.92290241120652
H         1.59092414828366   -2.03177068424856   -4.13664367408908
H        -0.02528664321365   -2.77297544489977   -3.88278799842285
H         0.32993346167330   -1.16351056068302   -3.20956589398772
H         2.72451414521338   -4.43197969943883   -1.34721871800853
H         5.03608303578400   -4.80893432436545   -0.95743063985891
H         5.66206657556269   -6.38361549661335   -0.40754305134623
H         4.16367627845893   -6.31635872628382   -1.36684043260491
H         2.73302337784857   -5.62659480797427    2.76043503675284
H         0.59298739482603   -4.43470665414704    3.09273229788432
H        -1.84754096902965   -4.45279525399408    0.38927586877604
H        -4.22929812389015   -3.91933185146869   -0.35252252849443
H        -5.90698067255873   -2.13501348589517   -0.88242575134775
H        -3.74112277440107    1.92936615311618   -1.39238902821461
H        -2.42182377065183    2.97755921091070   -0.82667231577668
H        -2.04226738939898    1.33845062767293   -1.40562383736898
Cl        0.15031854083096   -0.50319615852314   -0.26907240489427
