75
 energy: -118.378713787770 gnorm: 0.000846640105 xtb: 6.4.1 (afa7bdf)
Ir       -0.17772691468566   -0.43099115955845    1.40078571760596
C        -1.61531991759610    1.39478471622255    3.90244034254078
C        -0.39690072095573    0.76343952116599    3.32369760279487
C         0.06247592708617   -0.56850545657811    3.60557604787758
C         1.37664567443608   -0.71601143363152    3.02779974482495
C         2.31374781090662   -1.83550271007639    3.32548159646195
C         1.66634185877128    0.46142583183261    2.28960305550873
C         0.55614268259199    1.39033306226408    2.47168403912415
C         0.60862261246705    2.82385996438646    2.13996989510836
C         0.58946635687275    3.75489080773173    3.17813676756968
C         0.71158813887142    5.10361947952179    2.91067459017037
C         0.85217669670425    5.56370027956136    1.60229340394945
C         1.01353638139256    6.99889027876820    1.32387972045681
C         1.92949887590889    7.43345275811861    0.36734567140608
C         2.09882466054071    8.78236676950184    0.11526036106510
C         1.35134444644766    9.72033694277495    0.80902902580230
C         0.43369549419597    9.29965571224823    1.75776571128903
C         0.26810130028799    7.95115456622251    2.01622484735304
C         0.85147827632684    4.62929364304761    0.56775551104009
C         0.73324464404227    3.27907481287235    0.83071467500699
C         2.96418688581886    0.82670679609115    1.65624137981394
C        -0.56154359395188   -1.49926698025769    4.58905868499731
H        -1.44913578840270    1.57770109567448    4.96447217883213
H        -2.48269221907179    0.74406226055770    3.81427325067629
H        -1.82232272733631    2.34557356974967    3.41880997386642
H         2.80582665509405   -1.63200275908026    4.27750703028376
H         3.07825945354422   -1.92932345238541    2.56022536997355
H         1.78894151366252   -2.78345376517906    3.41277491325133
H         0.51029141220056    3.41666367501178    4.20028767318687
H         0.72586784520132    5.80954654128795    3.72772447499936
H         2.52908862530937    6.71023416827572   -0.16641895006134
H         2.81879718758546    9.10478261658523   -0.62346118754650
H         1.48413002136738   10.77396963546825    0.61121394070420
H        -0.15491602241665   10.02727686924502    2.29807305525550
H        -0.45918606109756    7.63329248536457    2.74912065588161
H         0.93286762158926    4.96641804317914   -0.45482530373876
H         0.71696554425793    2.57135218432435    0.01644261091051
H         3.57865478799016   -0.05091283474428    1.47785761411723
H         2.80246054302507    1.34479962300231    0.71423457622090
H         3.50424976667119    1.50288110779170    2.31999153891737
H        -1.64377348759187   -1.40351099031484    4.58790131532264
H        -0.29488760356014   -2.53115682902337    4.37831816236148
H        -0.20144089831471   -1.25576403740461    5.58945376849662
F         3.86497741756219   -5.87011036609302    0.54989145534427
C         2.83239101248566   -5.00353354106936    0.58736000038578
C         1.60929193820087   -5.43961380733960    1.06920914084571
C         0.54879852925211   -4.55420767846549    1.09667109585068
C         0.72411792190838   -3.23953991836900    0.66128500989810
N        -0.34124507040239   -2.33006684040707    0.68131759121803
C        -1.49300811302364   -2.66368075794623    0.18744669777466
C        -2.51913850012282   -1.67241890576168    0.21383238876367
C        -3.80033771563753   -1.83276916898656   -0.32586648028403
C        -4.68747668973899   -0.78386788520711   -0.28875102685258
C        -4.28221768420508    0.43705549651331    0.27849661056593
C        -5.15401030965448    1.57751302430106    0.34057473882056
C        -6.46479261748092    1.74976748087315   -0.05990497952461
C        -6.79996245611363    3.08166726600415    0.24429636183242
C        -5.68121448534877    3.63140936759294    0.80610344229454
O        -4.69160097757268    2.73768394799179    0.87026435274952
C        -2.98184710630166    0.51808134862609    0.79658547136840
N        -2.13694129952665   -0.49830021332868    0.78155028444309
C         1.97046108239480   -2.81753038157369    0.19717987257312
C         3.02832841297395   -3.70411867682164    0.14790550939541
H         1.49878900253138   -6.45638725841802    1.41057397587525
H        -0.40904933427311   -4.87154477805067    1.47856744566230
H        -1.65846226036905   -3.62967499270056   -0.27540239009534
H        -4.07073445749044   -2.77665936636178   -0.77047643533506
H        -5.67805814720077   -0.88962999014046   -0.69872359195326
H        -7.10721724511834    1.02227838456741   -0.51040873686415
H        -7.73842593333499    3.56582806678718    0.07057182555410
H        -5.48210375752667    4.61481003204093    1.18411726994087
H        -2.63647718054361    1.44613437785273    1.22803031784032
H         2.08312181280079   -1.80436207141944   -0.15707388077065
H         3.99430637628470   -3.40541440625306   -0.22572184701266
Cl        0.27325808845538    0.17880280192022   -0.86973854393049
