70
 energy: -117.699172967355 gnorm: 0.000661092717 xtb: 6.4.1 (afa7bdf)
Ir       -0.72775121929164   -1.37894539736645    1.72633961883095
C        -2.37136681184967    0.55310178580745    4.02383534446236
C        -1.08921452081249   -0.00790240522424    3.51624755600028
C        -0.49895904370203   -1.24275552884675    3.95374860943585
C        -1.03551660294501   -2.11031168532745    5.03977895657222
C         0.82415409332152   -1.32552673105382    3.38911263308729
C         1.88085337595020   -2.28609860723055    3.81457551734202
C         1.00591842824704   -0.21449306834118    2.52015154591778
C         2.28568819484296    0.18597645812155    1.87365689177278
C        -0.19529805493116    0.60906821271803    2.59359611226251
C        -0.29512767732299    1.98508567100745    2.07804259223037
C        -0.48172776235549    3.03176482614568    2.97998123561070
C        -0.52265565084044    4.32839839147482    2.50406660812999
F        -0.69977842701384    5.33529722229906    3.38473914007176
C        -0.38812777223427    4.63542665684601    1.16174272544104
C        -0.21012038663369    3.57350580651300    0.29230767085887
F        -0.08107919974202    3.83393338578791   -1.02501816026735
C        -0.16052886678651    2.26021911750296    0.71973968982105
H        -2.68398716065808    1.41227949196599    3.43694648817107
H        -2.22997330575742    0.87456094205373    5.05629438660723
H        -3.16080318353446   -0.19530656069665    4.02203096943992
H        -0.69117202914753   -3.13475212393636    4.93393405133016
H        -0.68384181053948   -1.73391601808556    6.00096955279766
H        -2.12135341531061   -2.09965086918184    5.04973646161788
H         2.36067673010770   -1.89270385868985    4.71165516377205
H         1.46023667509202   -3.25706821592916    4.06069043341447
H         2.64728553242675   -2.39839409765227    3.05288866343043
H         2.80428338265896   -0.67377113891999    1.45749542622154
H         2.11147976261767    0.90472068937312    1.07909964113422
H         2.93209520104400    0.64594875289985    2.62200313672415
H        -0.57069884823517    2.85159152417507    4.03867520014358
H        -0.41903726365507    5.65331477710355    0.81056879023481
H        -0.04258314764576    1.46421673986044    0.00089878164548
C        -8.66043799123031   -1.64937207491604   -1.00722341324854
O        -7.33935947937873   -1.44878619356174   -0.50344288625416
C        -6.49178541526022   -2.46161778465793   -0.62000254220166
O        -6.75720971752998   -3.52858146098285   -1.11964309253769
C        -5.14865708913234   -2.13854234802697   -0.04146558193444
C        -4.82645838929917   -0.86700365316762    0.43926738499690
C        -3.56996445813308   -0.65095643662422    0.97374595508333
N        -2.65176440276221   -1.61133063490095    1.06333267003890
C        -2.94275580018561   -2.84185242168748    0.57247347111457
C        -1.84719539768480   -3.76546840721648    0.64145109672063
N        -0.75052346039913   -3.32750784776915    1.16532823159627
C         0.41579883544738   -4.16940951625862    1.15688277079076
C         0.24130895429015   -5.59093648377864    1.73995451917454
C         0.66270114257660   -6.22143553174119    0.39458177940133
C        -0.40423652970089   -7.08063624259650   -0.24209131589390
O        -1.54378864097568   -6.71531352361924   -0.42910482857263
O         0.05803043447111   -8.27894633336336   -0.55860317400390
C        -0.85380069086164   -9.20540308964401   -1.15157183216945
C         0.78331968963776   -4.80415068162503   -0.20447215742834
C        -4.18410062930676   -3.13465508853457    0.01433051854284
H        -9.11525004679966   -2.51974046748243   -0.53165753236587
H        -8.63078735243450   -1.81142826570152   -2.08576326437199
H        -9.21141424817665   -0.74461258609114   -0.76777141735544
H        -5.54633191686138   -0.06653595118803    0.39583436813864
H        -3.29177589462514    0.32484037113606    1.34289516188020
H        -1.94397164955007   -4.76735658146232    0.22695226077959
H         1.23942240375981   -3.61357626912672    1.60057133644588
H        -0.78393301451539   -5.81650244337285    2.02400697011889
H         0.90974314209589   -5.81926748622535    2.56452575187362
H         1.59447963946745   -6.78206933145513    0.42654338632441
H        -1.32131518078433   -8.76353328775034   -2.03268101906068
H        -0.26298491270264  -10.07527677017836   -1.42314468088744
H        -1.62930959664632   -9.47622273880134   -0.43335910658922
H         0.06002774850219   -4.58975482388544   -0.98766133708745
H         1.77770354051039   -4.54791642842213   -0.55665724865410
H        -4.39548086720830   -4.11899226803595   -0.37350339504900
Cl       -0.18684597424333   -1.01123006254560   -0.56623524157550
