70
 energy: -102.458879847843 gnorm: 0.000405676213 xtb: 6.4.1 (afa7bdf)
Ir       -0.35531484406178   -0.90352526746770    1.60176206724924
C        -2.66676475022817    0.89467489548597    3.42917240078869
C        -1.31256018364135    0.28883982542605    3.28579851594045
C        -1.02045152697391   -1.05693570273496    3.72215996204456
C        -1.99985496762748   -1.97410396725164    4.37213578658998
C         0.40693152527407   -1.22632304263174    3.72414532253217
C         1.12448593432015   -2.34687965237699    4.39426561013485
C         0.98307494214860   -0.05173690340259    3.16088131419151
C         2.43709586109236    0.28026609323467    3.11007742382561
C        -0.09090553122957    0.90129381870620    2.89359655614730
C         0.17979242447545    2.33852625170526    2.54219525509077
C        -0.63634681990778    2.89452181144361    1.37050561735433
C        -0.17803536537463    4.31652959960937    1.05781265886882
C        -0.34590959756019    5.21478586547481    2.28122527703280
C         0.43001566374269    4.65327758284466    3.46999072247342
C        -0.01550303590720    3.22723907823775    3.78183124175190
H        -3.44142310106408    0.22797253096745    3.05601681717452
H        -2.74572374656726    1.85126520198107    2.92599084318602
H        -2.85668703520401    1.05320233013047    4.49184486409114
H        -1.70575612969471   -3.01323671493595    4.25641229572683
H        -2.04268273415392   -1.75180727711877    5.43893981276218
H        -2.99614323054643   -1.84402517952057    3.96035546028534
H         1.26056035646395   -2.08093394988895    5.44373670799462
H         0.54685028582009   -3.26591061024762    4.35908221278463
H         2.10565570272939   -2.52031607359313    3.96424648910135
H         3.04504668230489   -0.57338806387823    3.39127544078277
H         2.72859177347630    0.60401776831970    2.11287095680469
H         2.64588264871991    1.09384266755188    3.80450711019161
H         1.23071179817664    2.40571521419324    2.24567084313624
H        -1.69896713576111    2.92337021789650    1.61100693017511
H        -0.49274969013621    2.25787857250729    0.49658185567262
H        -0.75778566388780    4.71461858041676    0.22236199288841
H         0.87151626866468    4.30486384123192    0.75515526128843
H        -1.40555580902507    5.28561075165558    2.53859365004783
H         0.00641346419747    6.22260340648896    2.05243011734940
H         0.27539563039834    5.28584729328247    4.34638612275632
H         1.49784190808989    4.66101098266882    3.23913577636746
H        -1.06633737759568    3.23153943380756    4.07276862904351
H         0.56386318792051    2.83169766486334    4.61815288443638
C         5.93440832075447   -3.25483930137932   -1.90888893580458
O         5.09055443425837   -3.57536506899415   -0.80280744252108
C         3.80555676632899   -3.81039585299144   -1.05370176668306
O         3.30535620843696   -3.78187695827055   -2.15174679121936
C         3.05465618538321   -4.08455021385697    0.23001868625326
C         2.49042599584245   -2.82346140091876    0.92169817890063
C         1.12656499337044   -3.53394805825875    1.04840710434131
N        -0.02275989148045   -2.72802938865878    0.74361078545106
C        -0.85284207283922   -3.08255215660394   -0.17701395294789
C        -1.92991938436880   -2.18590586502216   -0.47877243190101
C        -2.85604645085067   -2.38348720915930   -1.50589705382792
C        -3.81677036886856   -1.42303769968090   -1.74572252062294
C        -3.81202018744705   -0.28003166136950   -0.94753136443403
Br       -5.10333084266440    1.09300312323474   -1.20612252387212
C        -2.86588466219923   -0.14071865085224    0.05833411868715
N        -1.95362915680080   -1.07411093804822    0.29666345629286
C         1.62041217698028   -4.60549212050012    0.05619866471935
H         6.83454874961899   -2.81797771473978   -1.48553941353389
H         5.43356925083114   -2.54921288150995   -2.57348813657035
H         6.17591528703954   -4.16100457009661   -2.46683342002247
H         3.68285013561466   -4.67842587758682    0.89130894978545
H         2.98219730667490   -2.53136357131220    1.84219930172402
H         2.43169567793037   -1.96922201019322    0.25203480009241
H         0.98343818595717   -3.94624608901796    2.05050188624456
H        -0.74877866491647   -4.00857833432336   -0.72818869987518
H        -2.80546786873469   -3.27660179010044   -2.10792059845707
H        -4.54777832551348   -1.54417629236268   -2.52914831503880
H        -2.84832577471277    0.74583760501138    0.67380075017567
H         1.43945616128297   -5.64021489874649    0.33146119004568
H         1.30159795785211   -4.42945044526070   -0.96917511475149
Cl        0.77468807537266    0.00331641648748   -0.30438619668836
