92
 energy: -128.241203252479 gnorm: 0.000466591443 xtb: 6.4.1 (afa7bdf)
Ir       -0.75268619405728   -0.29490915974879    2.17039043242624
C        -3.11499621918360    1.69985264893179    3.70184063275248
C        -1.80869822184800    0.98649406343687    3.75876000065914
C        -1.65315535305460   -0.37076330116095    4.21942070186040
C        -0.25720550319586   -0.61984181640362    4.37883378090414
C         0.34315494152839   -1.73359910703201    5.16286758519845
C         0.45647513826804    0.50410015889936    3.85379684156096
C        -0.51803895115284    1.52996409927774    3.52025807981328
C        -0.18297158486783    2.94058112159982    3.26942712568224
C        -0.66056163985523    3.91968415283461    4.13931194175237
C        -0.30994859634856    5.24342314340190    3.96292776208632
C         0.52554211632645    5.62926500458636    2.91610025585814
C         0.90802606194063    7.03780077981944    2.73798500736126
C         2.21482905465808    7.37809532112623    2.39353929146172
C         2.57859817874803    8.70262685205295    2.23463531614326
C         1.64220390684951    9.70854745299257    2.40994480667514
C         0.33938018422270    9.38143072331638    2.74905425836690
C        -0.02444893802799    8.05779524224364    2.91544825951914
C         0.99553444108661    4.64661509507668    2.04631310624155
C         0.64925079438096    3.32161013640146    2.21907062959053
C         1.92575694100869    0.72308159920909    3.97196675472350
C        -2.76241664470754   -1.22483185047294    4.73623488392502
H        -3.56011582722091    1.70290149345357    4.69719156775295
H        -3.81275509953016    1.19947318260950    3.03211369942363
H        -2.97742455736819    2.72621896328482    3.37640948597534
H         0.35730126653020   -1.43025519305204    6.21180965394923
H         1.37077836373884   -1.92742011403453    4.86686675620760
H        -0.24649818754674   -2.64462484055662    5.09543968117993
H        -1.28382669966734    3.63890828939517    4.97482404032407
H        -0.66586035661153    5.98656113579374    4.66085337876678
H         2.95547139801173    6.60124035057822    2.27066165056830
H         3.59746840578425    8.95300059605739    1.97591986958719
H         1.92679496574068   10.74285972684545    2.28371302279232
H        -0.39503749537708   10.16240354151837    2.88392603881541
H        -1.04566946577885    7.81139620614143    3.16704645313664
H         1.62477298209874    4.92789613292787    1.21528948559394
H         1.00241644775407    2.57882724053319    1.52004048784850
H         2.48159344300023   -0.17951564050108    3.73041008826344
H         2.25194078812399    1.52284026085016    3.31355941401443
H         2.16379910045906    1.00546158151922    4.99844841373017
H        -3.68256494639065   -1.04056889317151    4.18817979558308
H        -2.51487912356032   -2.28065023622693    4.66210070827516
H        -2.94113248837046   -0.99314285101748    5.78715525419571
C        -1.49999649821836   -2.76957195866490    1.07085624254961
N        -0.48030403707521   -2.23419051324429    1.63403965278816
C         0.64363735107333   -3.06817381684996    1.98799240718775
C         1.97256754758181   -2.57090901986421    1.41260658064661
C         2.09183439489581   -2.81749479379795   -0.09506331159519
C         3.46999209906042   -2.43785906830598   -0.56185142921297
C         3.79396718579996   -1.10059659249304   -0.75859483025626
C         5.07142529214746   -0.73439018640937   -1.14214911747509
C         6.04434927138018   -1.70212655420211   -1.33373045573426
C         5.73051367909162   -3.03690086282368   -1.14180986364097
C         4.45149048690405   -3.40086263934869   -0.75570152074065
C        -2.60526654406759   -1.95708988108741    0.63675816261483
C        -3.73706947682041   -2.55218235579621    0.11420202800735
C        -4.77649880731735   -1.72043310979434   -0.30410087466601
C        -4.54437732795546   -0.37644547062638   -0.35165746473815
C        -3.28777492534010    0.17971080465258    0.04167443570907
N        -3.04550622048401    1.45636484916354   -0.28791098180134
C        -3.61060519711449    2.05015316655803   -1.49241474039457
C        -4.30870620893892    3.37082686751638   -1.18167478191550
C        -3.29717857630729    4.32976761003158   -0.56019582440833
C        -2.67536908144055    3.66453739691200    0.66299125089328
C        -2.04471650964719    2.31966611621977    0.29476079314241
N        -2.40983648258488   -0.60912821037474    0.71065009594716
H        -1.53435593766189   -3.83420880287803    0.85754951049148
H         0.72311538635696   -3.07530970219416    3.07597172185438
H         0.46178506264214   -4.09353345151971    1.64837525647083
H         2.07966906000505   -1.50314482150134    1.60351067332317
H         2.78089852564531   -3.09622922672985    1.92383297084486
H         1.34865457355318   -2.21112463338671   -0.61450862746999
H         1.90641493060045   -3.87074835172592   -0.31449506208836
H         3.03506191443909   -0.34659472800616   -0.61250326760561
H         5.31092637423323    0.30848838672131   -1.29410076971744
H         7.04284403032619   -1.41799589774191   -1.63485903068806
H         6.48464144267143   -3.79645916857868   -1.29312903758859
H         4.21721384191391   -4.44610331667793   -0.60777719780032
H        -3.82023495049162   -3.62431395909244    0.07589264405034
H        -5.73143082044620   -2.12947918683958   -0.59304853508686
H        -5.32969911153491    0.29502295962005   -0.65374333374354
H        -4.27837807988148    1.35582467472570   -1.99688004195995
H        -2.77108779393970    2.24893426419511   -2.17036072298136
H        -4.71830340785326    3.78779397314757   -2.10195092223516
H        -5.13390318568621    3.20206673056819   -0.48733563877712
H        -2.51983181557810    4.56725391087141   -1.28912397771411
H        -3.78280427887156    5.26338634062124   -0.27357252068954
H        -3.45883730029370    3.50644509173782    1.40525618779350
H        -1.90791404351422    4.30295114509948    1.10111688179853
H        -1.22845701304173    2.47504517968293   -0.41770492234037
H        -1.63100178436856    1.84370621665907    1.17989239447940
Cl        0.55401513950867    0.31821830256153    0.29034351382892
