73
 energy: -116.540171803869 gnorm: 0.000582791170 xtb: 6.4.1 (afa7bdf)
Ir       -0.94446639755227   -0.43035685182401    1.54313860826486
C        -2.37960750830694    1.65100492784101    3.88420394746142
C        -1.27094122579058    0.73731343195603    3.49213465273972
C        -1.26409613115093   -0.68519766636135    3.73826160511866
C        -2.34105527643183   -1.42356363914140    4.45844212734061
C         0.04522291083518   -1.17404948711363    3.44648689998336
C         0.57632601552023   -2.51422258272631    3.81005749737289
C         0.80017152902982   -0.10603252039553    2.86773700368628
C         2.25965917967821   -0.14324318831519    2.57639561278942
C        -0.01071831938665    1.09960889701735    2.94761525469484
C         0.50217946148130    2.46467173377797    2.74977631834423
C         0.44453762225763    3.36699488085996    3.81076023873395
C         0.97271347559028    4.63310276520154    3.64541608273562
F         0.91525677751478    5.49805209428924    4.67935130957815
C         1.55790942878770    5.04802837677878    2.46262766506476
C         1.59516071442692    4.12977597763931    1.42749079039762
F         2.14941816119718    4.50409917681350    0.25647184688890
C         1.08138573991195    2.85219087600592    1.54338550675978
H        -2.18710046397872    2.66313998745489    3.54209597581458
H        -2.46367053213973    1.65771698123908    4.97133952600269
H        -3.33259341846984    1.30951911209754    3.48508364448931
H        -2.30556365421743   -2.48619291201894    4.23576830595423
H        -2.20741684165618   -1.29911816456697    5.53354836655271
H        -3.32182264017365   -1.03816497079239    4.19326602313037
H         0.96288302440750   -2.46490280508751    4.82885592846000
H        -0.19912849727312   -3.27451549598994    3.78236335694447
H         1.39103791775295   -2.81104326111245    3.15597160341665
H         2.54758135961017   -1.10123058984166    2.15128259002047
H         2.54225804428108    0.64754627269927    1.88854992934047
H         2.81294762405638   -0.00322231847554    3.50581298045412
H         0.02031117135559    3.08905214676841    4.76153246668043
H         1.96544111686449    6.03889004587019    2.35221413087506
H         1.10252267060072    2.18440261243765    0.69535362023265
F         3.07176191485960   -5.85799317426608    0.53138500874932
C         2.05165528796968   -4.97789883235290    0.57586984609085
C         2.26560751705085   -3.67563811276500    0.15400733480329
C         1.21976808162337   -2.77444093645142    0.20755195037225
C        -0.03429479695401   -3.18074626348467    0.66527514343467
N        -1.09330680671530   -2.26148306863634    0.71201825554136
C        -2.28149472105989   -2.61930757977864    0.36185682506466
C        -3.35647684459011   -1.67343226163717    0.46037257368025
C        -4.66879093214266   -2.08993215854498    0.33652780430789
C        -5.67041325143191   -1.15479109090476    0.60297334679339
C        -5.31590804609049    0.15413169339789    0.76123651346751
C        -3.95262696284983    0.57051207863666    0.62592900774740
N        -3.69397554975069    1.86738603258837    0.43887927262106
C        -2.36275356811174    2.43610587879526    0.37734318241459
C        -2.39485139706460    3.89229923591673    0.82689593664242
C        -3.17898139459688    4.74630643473489   -0.17320903595654
C        -4.24617862897609    3.88481043518255   -0.85237057050519
C        -4.76471022653824    2.79706404257314    0.08537089699746
N        -2.98353442220723   -0.38024389412238    0.68613997097858
C        -0.22280074233804   -4.49778462591345    1.09398855580509
C         0.82188243536486   -5.40049410009095    1.05365260128248
H         3.23665283342500   -3.38305571532647   -0.21186539069736
H         1.35463345523337   -1.75997815786388   -0.13330052520811
H        -2.48252263741877   -3.60970153075851   -0.03209648099520
H        -4.89738625743021   -3.11789436498210    0.11627819916474
H        -6.70139312521916   -1.46024294849972    0.68135091675719
H        -6.06357574569546    0.88512390194477    1.01357820374915
H        -1.70208299987620    1.85933826111105    1.02336111774300
H        -1.96441137748219    2.36534960160022   -0.63913270530303
H        -2.86406108708604    3.95099747260226    1.80946925962902
H        -1.37290809864988    4.25696809800750    0.92485188872330
H        -2.50956704049333    5.15678337396132   -0.92909372979954
H        -3.63980847657531    5.58706491516591    0.34589885230200
H        -5.08787029563253    4.50120184964474   -1.16750924249784
H        -3.83558629773326    3.41257248286476   -1.74520360047915
H        -5.55597182361476    2.25613637329637   -0.43504459188258
H        -5.17861063773198    3.25628160329167    0.98927391895824
H        -1.17977136353710   -4.80852915229749    1.48304011669812
H         0.69581588937222   -6.41790025126294    1.38674507428054
Cl       -0.07952289793651    0.25997061164455   -0.56728811779971
