71
 energy: -113.682822465375 gnorm: 0.000572251214 xtb: 6.4.1 (afa7bdf)
Ir       -0.94103071214211   -0.97973879845090    0.44379036734243
C        -2.22856283523413    0.92610461218930    3.00851410573549
C        -1.09396298226653    0.19026507707823    2.38879234919973
C        -0.79085991694232   -1.18964767860192    2.64916584313319
C        -1.54937618560654   -2.07036082032310    3.58271738305092
C         0.51055671398929   -1.47114414381972    2.09541120785866
C         1.32379111656259   -2.68458436940021    2.38474176855628
C         0.95910670929928   -0.29805234982209    1.42265753330850
C         2.29873658202588   -0.06756002017393    0.81697038002037
C        -0.04311300676990    0.73303632387886    1.58929873055690
C         0.20472072009443    2.17167544041141    1.28379821862255
H        -2.00881338958296    1.06820960498924    4.06730726380390
H        -3.15500180312792    0.36144681307065    2.93625062621917
H        -2.36661480455737    1.90039779377515    2.55121396480778
H        -2.61958774905651   -1.90006975835673    3.50102461856057
H        -1.34006744812391   -3.11913001367065    3.39213457733836
H        -1.25078103119774   -1.84658031833078    4.60756873965854
H         0.70074401867909   -3.56494261358320    2.51377054922226
H         2.04239888143491   -2.88262688581751    1.59493261407582
H         1.87474666916326   -2.51879578875458    3.31158784328648
H         2.20332701801974    0.34946334268736   -0.18407551130531
H         2.87225638842416   -0.98778672267685    0.76333045430277
H         2.84723438751118    0.65121032564389    1.42586623157790
H        -0.69869220518172    2.76363917599703    1.38703074791360
H         0.58987232601425    2.29453055675371    0.27476958639928
H         0.95241012883658    2.55710581189211    1.97817230589527
C        -2.04888283702481    7.91504142165345    0.43703045444316
O        -2.42009232896266    6.53937552824012    0.43569200185545
C        -1.81973762532906    5.75377653793694   -0.46173023997862
O        -0.99075275369537    6.15201105147144   -1.25016218045286
C        -2.27885234375031    4.34281531723862   -0.38049458002592
C        -1.66543834873173    3.39347080028946   -1.19422522206371
C        -2.07269654724622    2.07303282668278   -1.16268581400136
C        -3.11552881273330    1.68540050813469   -0.32438550885799
C        -3.68331313253152    0.32927366481752   -0.43013835726251
C        -5.04163996057556    0.24591007368203   -0.75314224507931
C        -5.63012977805581   -0.98000390997838   -1.00652574907664
C        -4.83399491468542   -2.11019874469894   -0.95139224761145
C        -3.49778931852224   -1.97253913141200   -0.58503884876043
C        -2.60714238504614   -3.09444293543589   -0.51405301239554
N        -1.39204739112071   -2.87711726876025   -0.13767127719463
C        -0.48489877243083   -3.94418888347774   -0.07480368338379
C        -0.82982186537267   -5.12988845251126    0.56897388448398
C         0.08663334226029   -6.16707424614110    0.61213391512738
C         1.31220711806330   -6.02144509519481   -0.00206754654101
F         2.18828543306785   -7.04714807461735    0.03322841826746
C         1.68331442207469   -4.83809090210601   -0.66457235743630
O         2.90147310198869   -4.80856394102546   -1.23523198607317
C         3.28610371809548   -3.64677355421128   -1.94947877016441
C         0.76668799921416   -3.79341712205676   -0.67085312024323
N        -2.93182428784104   -0.77051061563905   -0.29617362400557
C        -3.73572858933071    2.64015270877320    0.48520354968542
C        -3.31258351598827    3.95453069859826    0.47087266722190
H        -2.63819652396041    8.38347115382649    1.22015943995514
H        -0.98134197632255    8.01702288299048    0.64068992680589
H        -2.26587419618050    8.36604071628110   -0.53295843944129
H        -0.87419630900873    3.71184864834218   -1.85514235475418
H        -1.60590171261995    1.35078511467247   -1.81155006116681
H        -5.61138110937132    1.15822496710366   -0.82632791840180
H        -6.67590654437102   -1.04833400180394   -1.26039516187569
H        -5.22551879070356   -3.08844589397237   -1.17757209941809
H        -2.94264527486580   -4.07943124799902   -0.81940033913359
H        -1.78713860244948   -5.23083013249417    1.05409659437994
H        -0.14145968278261   -7.09432395843760    1.11227882956691
H         2.60237265553072   -3.44774815328885   -2.77800590194342
H         4.27895432840780   -3.86235331956519   -2.33751790388388
H         3.33063887637213   -2.77535776484549   -1.29202687522474
H         0.98544328660734   -2.86316557550945   -1.16940419166233
H        -4.54979935219194    2.34950080958203    1.13181214097328
H        -3.78783936493383    4.68913116121602    1.10054731654261
Cl       -0.11633192321558   -0.63691326290765   -1.77043602088345
