65
 energy: -97.942259567954 gnorm: 0.000226076570 xtb: 6.4.1 (afa7bdf)
Ir       -0.75712427423697   -1.32379954739315    1.04032184196715
C        -1.82606836782043    1.05692828788764    3.31001518562462
C        -0.74487566230401    0.19301336999293    2.75655513790493
C        -0.45499160284476   -1.14074694328928    3.23010623488590
C        -1.15797069784095   -1.81598398067599    4.35939880508564
C         0.81061313996576   -1.54382342449185    2.67404676953683
C         1.60397578997974   -2.72491797201701    3.11368365943538
C         1.21717604561516   -0.54149963924160    1.75404442967453
C         2.52155123610092   -0.45155397047835    1.03839018943574
C         0.25287453132042    0.54605101094591    1.81364058828103
C         0.47622224153203    1.87387695303635    1.16872218977566
H        -1.54127490131373    1.36804841484115    4.31591663781373
H        -2.76733434373338    0.51712945816369    3.38193476605675
H        -1.98031560793291    1.94593941440323    2.70698304116335
H        -2.21864139181305   -1.58026261476389    4.35765878189162
H        -1.03478079580396   -2.89445451241961    4.30999145752126
H        -0.73588074304988   -1.47093731876953    5.30400420915426
H         0.95964393172269   -3.54777616928907    3.40996063219096
H         2.27120035960972   -3.07262426950810    2.33024047161974
H         2.20717182234774   -2.43851467299402    3.97595156816971
H         2.36954490007417   -0.15335112233938    0.00260029552914
H         3.04910605646933   -1.40057562875896    1.06520087417850
H         3.14498585526058    0.30472253671347    1.51670170317296
H        -0.36352204117952    2.54391832266013    1.32830269947264
H         0.64004130262647    1.75943438510320    0.09835613163584
H         1.36855189512049    2.33278999670442    1.59459751453480
C         3.27569899918423   -7.98921974085119    1.28492727765011
O         3.25466093707449   -6.76877144895118    0.56926346457737
C         2.16055312011238   -5.98763856243941    0.63952333910084
C         1.01533813049396   -6.27120283531948    1.37320770389210
C        -0.06148348803879   -5.40171576013581    1.37917720799557
C         0.00870599951081   -4.20543521580783    0.67251983092342
N        -1.03995632726749   -3.29011529846375    0.67869165067473
C        -2.27171287201751   -3.68761414075615    0.57121028327886
C        -3.27432485453204   -2.67100332666488    0.52415552548432
C        -4.64733934363138   -2.94527812729336    0.35621232007167
C        -5.52499428815747   -1.90575081838543    0.24608726929341
C        -5.03306904975210   -0.58168186493343    0.22749888547917
C        -5.87242534054483    0.53265544753931    0.03469290189818
C        -5.35042777293536    1.79569161433256   -0.04610133180468
C        -3.96383632797402    1.99114467995819    0.05077827604403
C        -3.12273382634678    0.93318027776898    0.26862911326555
C        -3.63070630559221   -0.37439306707958    0.38122476188372
N        -2.79398315442939   -1.41967808430471    0.59729806578056
C         1.16282663287141   -3.89457082102036   -0.05942021757689
C         2.22235735766692   -4.77728923303997   -0.10779825145881
O         3.35720486161546   -4.59051749904434   -0.81802007981398
C         3.44815756196913   -3.45775061533477   -1.65987036313663
H         4.25046661117485   -8.42694739563814    1.08000835213760
H         3.17115055525488   -7.81981708071189    2.36003831720029
H         2.49185380413975   -8.66742246636634    0.93706402387609
H         0.95078808185748   -7.18065635930477    1.94684744809872
H        -0.93321136805594   -5.63521365651849    1.96947190271698
H        -2.52627434761972   -4.73179844306509    0.43758001834639
H        -4.97465158128937   -3.97135755578716    0.32504297678846
H        -6.58569634374537   -2.07690114671964    0.14576364416816
H        -6.93382722804251    0.36638956865424   -0.06754407741156
H        -5.99803970559901    2.64390627585207   -0.20337215784633
H        -3.56233599742803    2.98691484736124   -0.05619708039478
H        -2.05402347876683    1.06889754703988    0.30376594825420
H         1.17428816663968   -2.97241104291073   -0.61743800633741
H         2.64589944010201   -3.44911680509291   -2.40231926570117
H         4.40922972221385   -3.54636014384140   -2.16189929891496
H         3.42100876383294   -2.52905417549430   -1.08460662072562
Cl       -0.37708942181417   -0.89123189125762   -1.28013557345399
