75
 energy: -111.135493818738 gnorm: 0.000596967706 xtb: 6.4.1 (afa7bdf)
Ir       -1.08246289609032   -0.77595123019514    1.70966086198031
C        -2.32513407650371    2.79018160943667    3.67734781846044
C        -1.21781124835128    1.84830536101431    3.41901842465627
C        -1.26745261189188    0.44636083384132    3.51062182732044
C         0.09987294129102   -0.06166057845336    3.26878768986244
C         0.64940016766272   -1.16694976921104    4.14004103063930
C         0.92387123085524    1.14011944310122    3.00785284746665
C         0.12500070105731    2.25158908683906    3.09913368546672
C         0.53890133650030    3.64084451914755    2.88687271637520
C         1.58141811436167    4.19085288398765    3.62921023860428
C         1.96145860055312    5.50478617330050    3.43927986037569
C         1.32284314970132    6.30123568559558    2.49094980293559
C         1.73209962390811    7.69922359254832    2.28607026900233
C         1.87038901339003    8.21786154010938    1.00039551707512
C         2.25518086923819    9.53246956473728    0.80960308902353
C         2.50134368515832   10.35195603503342    1.89946842470732
C         2.36418167434272    9.84726680571266    3.18238959246062
C         1.98653570079238    8.53092661780352    3.37472255814893
C         0.28730723959155    5.74447319211979    1.74231181312020
C        -0.10677617810074    4.43674058578699    1.94370519614534
C         2.35274946468383    1.09055874259389    2.62774978131087
C        -2.29677497678027   -0.33675372090728    4.29407935916341
H        -1.93595934245441    3.77433003266561    3.92656152112021
H        -2.96645058167903    2.43156807661340    4.47947558531909
H        -2.94569191827143    2.88975482184886    2.78576695273356
H         0.61277681835107   -0.84544733776572    5.18175281340047
H         1.68313982240414   -1.38987783391823    3.89520910188363
H         0.06567819486107   -2.08438300800745    4.05894308660897
H         2.08320564676216    3.58921007934368    4.37235312441607
H         2.77503489530891    5.91722881851059    4.01831095722073
H         1.69343768175048    7.58028207262198    0.14610392147848
H         2.36540845465250    9.92090775553621   -0.19297686407996
H         2.79967293768328   11.37940466029781    1.74964067494771
H         2.55202642912959   10.48355423231604    4.03563773155727
H         1.86755406124664    8.14797101384218    4.37819972965185
H        -0.22445249278537    6.35250723130428    1.01040940481213
H        -0.90411683977486    4.01589490507523    1.35031566339487
H         2.47839162043627    0.46033775752941    1.74883849097393
H         2.72167345348370    2.08581149655539    2.39926267429962
H         2.94867128504273    0.66553524829793    3.43524334916887
H        -3.27593036353679    0.12736825239290    4.22260461681211
H        -2.37315388055385   -1.37352049130787    3.94558925137471
H        -2.00670548676118   -0.37197353847215    5.34543859637966
C         3.60730118331221   -3.63478062766943    3.25896523536016
C         2.56160425705187   -4.33279554619387    2.85619352648344
C         1.60527812225110   -3.97267320504578    1.75825456389508
C         1.88586643035754   -2.63383007582552    1.08098642924655
C         0.88847237100320   -2.34117691997065   -0.04040413969516
N        -0.47118841106592   -2.19795998172558    0.41824856186704
C        -1.37176144964793   -2.97903141107716   -0.06697632099299
C        -2.76275926629213   -2.69313207870716    0.15473665543732
C        -3.81326309008397   -3.49594748350766   -0.28330309169959
C        -5.11704422946931   -3.06523008737654   -0.12025958211079
C        -5.35611588145219   -1.81467499270147    0.45523270002184
O        -6.53997953248179   -1.23603753211671    0.65017612071113
C        -7.72317265211538   -1.90942494853339    0.25029944821319
C        -4.22740443479796   -1.07671800642613    0.86799324045044
Br       -4.51488126840583    0.64008105390862    1.58300316321618
N        -2.99221019290213   -1.50237212859329    0.75192868276528
H         3.89162523100816   -2.69666208166719    2.81555728917125
H         4.23834002761997   -3.98674106159269    4.05730150230405
H         2.33521585784806   -5.27573599520050    3.33932497361964
H         1.63791349008949   -4.77487078697346    1.01395592554417
H         0.59373812588594   -3.96984409417566    2.17658071979707
H         2.88286047314812   -2.65069295965871    0.64132400884213
H         1.84111488837708   -1.82771814507353    1.80912326378260
H         0.94509133044812   -3.12757733373726   -0.80013319309411
H         1.15061977721609   -1.38160668183629   -0.49946061985274
H        -1.11223710823947   -3.80961665107577   -0.71674623941497
H        -3.60807511563921   -4.44782563441187   -0.74527961042496
H        -5.93596313577975   -3.68126619157133   -0.45393956183329
H        -7.83842214515367   -2.85190877484348    0.79041189858793
H        -8.53732332181341   -1.23671836995903    0.51043869319565
H        -7.72641517053630   -2.09008120145415   -0.82693441859247
Cl       -0.42513608040714    0.81594671552500    0.20816338740395
