79
 energy: -116.455067598683 gnorm: 0.000508184178 xtb: 6.4.1 (afa7bdf)
Ir       -0.53294886272541   -0.89319809416675    1.68780225849034
C        -1.76172096582413    1.49828642517326    4.01039461334436
C        -0.71517438296998    0.56801132760606    3.50429291895573
C        -0.67633380095703   -0.82605654114009    3.91095443911998
C        -1.67004202660257   -1.46259584750878    4.82123566498770
C         0.60780812616306   -1.35314762021383    3.57844130654447
C         1.17897849234014   -2.62863695963028    4.09245934716888
C         1.28881341703300   -0.35860667651111    2.80176434045073
C         2.72209218094559   -0.41546139740604    2.38999978004013
C         0.48181817573122    0.85883212101527    2.81299508009078
C         1.03463213368987    2.19055124234419    2.38728020144277
C         0.16924465082235    2.97256527942000    1.39523136896684
C         0.88525357666773    4.25569958232992    0.98439631147840
C         1.18302633943907    5.11841965768534    2.20793128585923
C         2.02687215622705    4.34180849648429    3.21498328929893
C         1.32103283969137    3.05332156588824    3.62846588421919
H        -2.75689897482946    1.07691531281286    3.89233819434411
H        -1.73402767090020    2.45857853722039    3.51091433946479
H        -1.59061210927136    1.65045909734131    5.07725887319393
H        -1.61881462270611   -2.54615464145173    4.76582967089914
H        -1.45469647976631   -1.16462651437084    5.84806118492099
H        -2.68128119736575   -1.14260065508283    4.58519034201404
H         0.41677827912538   -3.39587512988451    4.19727259499987
H         1.97178028336325   -3.00530385650818    3.45316423312663
H         1.60035244990044   -2.43638864200734    5.08014110448660
H         3.08789093053312   -1.43761574861339    2.38943191360678
H         2.86184482992520    0.00647538211954    1.39751179525050
H         3.31900384529102    0.16579255234936    3.09331598117539
H         1.99032353050920    2.00370489440414    1.88868533762551
H        -0.79094532402293    3.22950465259299    1.84221768204826
H        -0.01549019924986    2.35160757025483    0.51847163066864
H         0.26732006736007    4.81428240569594    0.27834206013709
H         1.82090615644825    4.00762527543536    0.47800377067910
H         0.24357974273108    5.42159372333723    2.67648714198786
H         1.70943607340621    6.02553148723198    1.90421847139174
H         2.21145137504521    4.95726687034499    4.09799294289471
H         2.99478660015268    4.10445458471759    2.76721440854983
H         0.38614654084721    3.30118930194010    4.13040197955544
H         1.94471404359741    2.49688427465326    4.33089128565997
C         6.17205127224578   -7.89255599266120    1.19692467322209
O         4.90798386372704   -8.25658337332849    1.71734335409890
C         3.89484447713281   -7.36816874763686    1.66120703805026
C         2.66433185030502   -7.83234156374702    2.19439507509216
C         1.55972054936801   -7.03882212611966    2.19236020565248
C         1.60910661097206   -5.73064007713099    1.65251596585800
C         0.47982102844044   -4.90174678855542    1.61218430366621
C         0.56315203025186   -3.62230455901150    1.09456826279374
N        -0.55483726249566   -2.78896098013579    1.02942257365155
C        -1.68214361021015   -3.27163215988232    0.59538180610907
C        -2.77245251929503   -2.36862290814327    0.43672871379778
C        -3.96253466716361   -2.70624049110751   -0.21755544480475
C        -4.90593135636907   -1.72687804557997   -0.42820459155803
C        -4.62234484603608   -0.41604228149502   -0.02344512202348
C        -5.61232041796916    0.57704822813514   -0.18617950581734
N        -6.44941267148211    1.35163695251895   -0.30874356851060
C        -3.38847183772440   -0.13752069399514    0.58993306501998
S        -2.91138788482821    1.48932693654850    1.05249937097557
C        -3.08425122964535    2.38611697416614   -0.51827944081617
N        -2.51812325200848   -1.10745318875705    0.86440129788193
C         1.79461677142776   -3.14249392606951    0.59280881801223
C         2.89555021735583   -3.94677132455976    0.59774243562527
C         2.84399086689965   -5.25770194014473    1.12731626395809
C         3.97401107275644   -6.09292365518372    1.14277924481340
H         6.59423439673718   -7.04418666233368    1.74232832231262
H         6.10741279192994   -7.65409154808100    0.13179382379894
H         6.80706612273882   -8.76528981731322    1.33502751725783
H         2.64214066851631   -8.83273565916154    2.59607409957297
H         0.62823834380260   -7.40335353755597    2.59769914593393
H        -0.45029964694770   -5.26304525343513    2.02526957023995
H        -1.76589856933670   -4.29985262735101    0.26558866193455
H        -4.12153773536019   -3.71771824473147   -0.55221544185939
H        -5.85084237259340   -1.94498234780691   -0.90136348204536
H        -4.12382869051209    2.45915505573182   -0.81677221955091
H        -2.48205374612124    1.88532948562406   -1.27012992920806
H        -2.68487010892408    3.37622734615835   -0.32309636604438
H         1.82304850271127   -2.15297101704226    0.16530169378261
H         3.82775862034067   -3.58930816789893    0.18751651091628
H         4.89577689538534   -5.70979534231052    0.73503128563062
Cl       -0.01439174775846   -0.16954722643318   -0.51717801645527
