74
 energy: -102.233436563870 gnorm: 0.000585048573 xtb: 6.4.1 (afa7bdf)
Ir       -0.24648768314158   -0.21333416726954    2.34051319358208
C        -2.16244959204911    1.75920305571308    4.42029013884560
C        -0.85835333352653    1.11746766002366    4.08468910653319
C        -0.50331474370911   -0.19777815036592    4.55635018542230
C        -1.35156816146343   -1.04128964823214    5.44761819935525
C         0.89875160896163   -0.39884646807152    4.30107613647305
C         1.73579576180681   -1.48133388208135    4.89315594468773
C         1.36877926107802    0.72044828041501    3.56367196200714
C         2.78926901797813    0.99762054685167    3.19994577956903
C         0.27220350528156    1.67156071198576    3.42246691848483
C         0.48870560032342    3.07637911419417    2.92759255275721
C        -0.50348573814395    3.55463449246689    1.86241831257435
C        -0.09792705679192    4.94188177697404    1.37131497633312
C        -0.06364338189349    5.93234073187396    2.53313182436194
C         0.89426775248338    5.45227774507975    3.62049916739018
C         0.50414150610923    4.05981551949211    4.10911913662946
H        -2.99884859223781    1.10083831302627    4.19292382988015
H        -2.29947549997407    2.70125752555641    3.90212511447025
H        -2.18127655727204    1.95452978838159    5.49332044640893
H        -1.08534479531674   -2.09150905209258    5.36891980988068
H        -1.20238900849435   -0.73123728131479    6.48252306793986
H        -2.40519907541584   -0.92935385542170    5.20917012586253
H         2.14013292507800   -1.12249043825474    5.84079669778834
H         1.14760629249091   -2.37081066953941    5.10003362973638
H         2.57267318994025   -1.74006602914597    4.25057440458281
H         3.40772364419167    0.11233592595356    3.31859228278602
H         2.86696778477962    1.33695497387707    2.16878477733809
H         3.18367300324612    1.78122685511642    3.84669874155626
H         1.47844132372188    3.10446239305544    2.46203582222855
H        -1.51247968046694    3.61681574078011    2.27120417279016
H        -0.50607013795905    2.84977233807730    1.02939215832562
H        -0.80212266288273    5.28571143628003    0.61100136086678
H         0.88941666222914    4.89079488496161    0.90662306072781
H        -1.06691753743145    6.03664151935812    2.95345759043298
H         0.24771675071411    6.91524113280946    2.17375228958772
H         0.88433698557847    6.15146979384227    4.45935976507926
H         1.91066164654303    5.42824196370054    3.22040861203621
H        -0.48233305081308    4.10269960196205    4.57202000268741
H         1.21492964564625    3.71991290907749    4.86491620437995
C         5.66731523152546   -2.60246743664272    2.09931192672121
C         4.67324453233101   -2.84088366750945    1.26386252969484
C         3.36551576785756   -3.45415854443251    1.65825402508279
C         2.20443681780630   -2.51564536924487    1.31636316270905
C         0.87606623952773   -3.05832619190442    1.85583448321356
N        -0.19554385803084   -2.12475291733113    1.61841483318573
C        -1.12786827551316   -2.43312851153094    0.78279631777421
C        -2.15859242715287   -1.46721810740330    0.55457660750424
C        -3.22131830140797   -1.63006336427486   -0.33873234212640
C        -4.14324606211293   -0.62033164275526   -0.48139002402791
C        -3.99160007299164    0.55761872969294    0.27019900701597
C        -4.94027301191299    1.63434295753606    0.15907129624874
C        -5.01774032906142    2.86453924242460    0.77921061278941
C        -6.17451806586725    3.48986887266630    0.27844388142105
C        -6.72336943085563    2.60646591673902   -0.60844575041845
O        -5.99138364978669    1.49307917400869   -0.68582525937736
C        -2.89561217271278    0.64493640785064    1.13594828251929
N        -2.01527841111522   -0.33150532349415    1.28313164469403
H         5.60611867372090   -2.85641018589223    3.14560210937420
H         6.59216780778433   -2.15713387034629    1.77426609992459
H         4.76481906975143   -2.57663094302844    0.21855574602438
H         3.37237362150248   -3.67366923440996    2.72757505358763
H         3.23565773181296   -4.39714471382504    1.12086598824502
H         2.13071683562723   -2.39316698718324    0.23524963782253
H         2.39016858530306   -1.52820062701094    1.74027834966732
H         0.65279672720440   -4.01855962053571    1.38019405765873
H         0.96443114575983   -3.21151472125134    2.93332295256912
H        -1.14212090459212   -3.38476519391808    0.26183393247923
H        -3.30004553720973   -2.54199627969472   -0.90818339801185
H        -4.97455910053489   -0.71471351810668   -1.16131851294733
H        -4.33669625130442    3.27249774114183    1.49614149056824
H        -6.55009015589405    4.45787402994853    0.53772757168382
H        -7.60217140401049    2.66261278957816   -1.22034095850992
H        -2.73619531819761    1.53779846401598    1.71832742504306
Cl        0.65642937356848    0.44248955703913    0.22633371781497
