63
 energy: -120.350647693565 gnorm: 0.000421249098 xtb: 6.4.1 (afa7bdf)
Ir       -0.33627194754486   -0.91255481044915    1.30629564250556
C        -1.75472612452918    0.77684926222646    3.88882618555762
C        -0.52439391302819    0.25614481208097    3.23731543906037
C         0.08715193802766   -1.00994500262603    3.51025558291913
C        -0.37155053220910   -1.98671749213533    4.53390832209729
C         1.34511795670287   -1.06048104003576    2.80278543758034
C         2.41312221585373   -2.07339637262477    3.02522352106330
C         1.48593440067140    0.14904144396025    2.05866295499308
C         2.70673096300618    0.60149903472800    1.34632077053208
C         0.30157132501592    0.95536075458186    2.29555861064806
C         0.16619250818496    2.37491248295377    1.92019132033533
C         0.08385297536364    3.33294470741234    2.92861545887836
C         0.00610463679039    4.66825771351777    2.57956266119577
F        -0.06688571541346    5.58789496824014    3.56101133164206
C         0.00128101328776    5.09612787113021    1.26355649686887
C         0.07821304344103    4.11914935567983    0.28651106934965
F         0.07024193360482    4.49551699829807   -1.00689885853126
C         0.16036088817983    2.77184815489557    0.58581467733093
H        -2.12842683986563    1.66203709805225    3.38165196411494
H        -1.51914633710012    1.04660902411924    4.91902816416552
H        -2.53669208578056    0.02202287900444    3.92341219486494
H        -0.04642512672519   -2.99464104813789    4.29195920112877
H         0.06323218449573   -1.71602780645275    5.49709259985472
H        -1.45243709146349   -1.97110828564007    4.63807547898412
H         3.01516872591640   -1.75573686369650    3.87735768290593
H         1.99609020418995   -3.05017935677657    3.25183401659447
H         3.06904221512109   -2.15543712308119    2.16417347457625
H         3.24658842997950   -0.23606158385969    0.91409115197787
H         2.46349645869280    1.31152042059725    0.56179759209845
H         3.36298079947450    1.09676171182486    2.06359402538489
H         0.10486275595334    3.05682459226118    3.96996830063814
H        -0.05932651206983    6.14162896294323    1.01140614626975
H         0.20414588667557    2.04739542509597   -0.21246417004899
O         4.39532347235851   -6.51344179024000    0.49273374519780
N         3.29979397840130   -6.77976953867122    0.94724108992768
O         3.00576582146099   -7.85021102244155    1.44296561723742
C         2.28343787350454   -5.76175962615768    0.89282721752585
C         1.03000513114797   -6.01657861262747    1.44157402928842
C         0.05119036980467   -5.04517977442830    1.37708391458014
C         0.33299371152206   -3.81645313810315    0.77434809179785
N        -0.65064612186905   -2.81970636855782    0.69698220027407
C        -1.80277001589761   -3.08958032313082    0.16344482624085
C        -2.74687463931044   -2.01573401972040    0.09073293688625
C        -4.00348525568301   -2.10101858833057   -0.51470765079293
C        -4.80816633694189   -0.98003410847128   -0.55458855507013
C        -4.32119610129509    0.20246992136180    0.00911944760587
C        -5.14884744948772    1.46300266835597   -0.03212142122537
F        -4.98207817491395    2.13017029522519   -1.18665132790170
F        -4.82653141898492    2.31327903373189    0.95220007101133
F        -6.45833769720441    1.21150919744176    0.08081629452446
C        -3.06171938473404    0.22499623957104    0.58834221172454
N        -2.29688077099842   -0.85883468521735    0.64365930289555
C         1.59756267654468   -3.56443012453797    0.23682085202767
C         2.57082161944445   -4.54090035056145    0.28804802384615
H         0.84027444956579   -6.97293251717533    1.90417117717001
H        -0.92166152963720   -5.22374689802062    1.80740666000512
H        -2.02442257949641   -4.06502743527045   -0.25334889706219
H        -4.33040909177934   -3.03313627452218   -0.94783694308838
H        -5.78787617999330   -1.00770759147947   -1.00673597767327
H        -2.66563464629207    1.13461099566783    1.01710679001104
H         1.78400742768794   -2.61774654696809   -0.24705019057630
H         3.55025847099415   -4.37906816446875   -0.13478524163421
Cl        0.18149615904069   -0.44681374031881   -0.96932174231456
