64
 energy: -115.326780257063 gnorm: 0.000333122487 xtb: 6.4.1 (afa7bdf)
Ir       -0.53668558061300   -1.01885347259804    1.37329380316504
C        -2.01622839374685    0.78442455554874    3.84999772045544
C        -0.77967346934687    0.18817077219719    3.27664632299852
C        -0.26222891296079   -1.10954838455987    3.59378018064886
C        -0.84076004463276   -2.04341460410929    4.59829658423992
C         1.04158091393576   -1.23034407745734    2.98703384833210
C         2.02380153509196   -2.30502988562409    3.29659853601255
C         1.28793619398269   -0.05519929940865    2.22354556040743
C         2.57073505683407    0.32757119004556    1.57582114790895
C         0.13859852119231    0.82657339149502    2.38400751069410
C         0.11712010335325    2.24922484259712    1.99751534219239
C         0.04352742443295    3.21680715964331    2.99813145382533
C         0.07373146972028    4.55262416507399    2.64294189104143
F         0.00780993323409    5.48132314091419    3.61752352850089
C         0.16887813524403    4.97237066214398    1.32807350929085
C         0.23285568126870    3.98605772577648    0.35899497832319
F         0.31701161091946    4.35703530844132   -0.93408490519880
C         0.20895230086069    2.63834778907995    0.66420482386545
H        -2.24989079315218    1.73083160283124    3.37080816398770
H        -1.85797466576916    0.96573931629638    4.91350945413296
H        -2.86263446404309    0.10695141933344    3.75962472507552
H        -0.55147588673132   -3.07008463873904    4.39326216973686
H        -0.46294639980768   -1.77926858959097    5.58678052673678
H        -1.92422586997724   -1.97402214981021    4.62170037486252
H         2.53249867213475   -2.04745708612168    4.22655488512894
H         1.53463282304564   -3.26510236887020    3.43634776531952
H         2.77335518300630   -2.39919905783223    2.51708443360221
H         3.15327947416815   -0.54883802037691    1.30729442087648
H         2.39701022476047    0.92418084977604    0.68472938975536
H         3.15532781141281    0.92707218184712    2.27518967634660
H        -0.00979310273028    2.94544129849191    4.03973402587148
H         0.19413836151021    6.01803537116555    1.07040662873292
H         0.24419337161282    1.90586738716938   -0.12716899976028
C        -5.10330282818003    2.22689177406892    0.52825429305948
O        -5.42653178879352    0.95840447946945   -0.02525088996378
C        -4.56810036044033   -0.04330019705074    0.04421784913693
C        -3.30832901762213   -0.00167216287787    0.65225340612847
N        -2.49273126359491   -1.04970722763670    0.69160195979340
C        -2.87100066972462   -2.21605863647986    0.11632684639360
C        -1.87960324699581   -3.24267678525124    0.16382264467200
N        -0.74391381319325   -2.93738244014568    0.70927235480497
C         0.28789879703912   -3.88224051132508    0.76330159185676
C         1.55475811574112   -3.53338750608722    0.28907652286006
C         2.57782423489427   -4.45778162543903    0.31966574159409
C         2.33811928738934   -5.72656051951638    0.84165221702127
N         3.40376709346332   -6.68988151463742    0.87381379354098
O         3.14869097569938   -7.80867653068018    1.27790561023133
O         4.50420223831447   -6.33571091607937    0.49488114250586
C         1.08246598608378   -6.07883977465007    1.32843926213446
C         0.05581824501767   -5.15779242939268    1.28517657394893
C        -4.11717847890380   -2.35208314132945   -0.50560716419111
C        -4.96416413122987   -1.27049068638347   -0.54074359245857
Br       -6.67123345562608   -1.36470006863891   -1.36768296437203
H        -4.98097315659097    2.15747929198052    1.61061917599671
H        -5.95510007090132    2.86320405561962    0.29828207918261
H        -4.20400617022364    2.63748355194906    0.06602731939025
H        -2.94742767903353    0.90707336517663    1.10892228676172
H        -2.05516271402775   -4.21286933607422   -0.28623327105871
H         1.70708141004016   -2.55030283148447   -0.13003653978943
H         3.56075403571840   -4.21991487898719   -0.05649889326950
H         0.92986999774457   -7.06934251815498    1.72838091858008
H        -0.91925067112400   -5.41288085708515    1.66941297572753
H        -4.39847227104595   -3.28904488638755   -0.95853274650232
Cl       -0.02218484809754   -0.51061303112457   -0.89916398084287
