70
 energy: -108.966184472863 gnorm: 0.000504367848 xtb: 6.4.1 (afa7bdf)
Ir       -0.53668003626573   -1.06259647186191    1.81231887714028
C        -2.23949391298716    0.53329753189605    4.41750541388463
C        -0.97673014831549    0.01275660604256    3.83242098718967
C        -0.48782064400280   -1.31980347098984    4.04579911056266
C        -1.14709037089235   -2.33572178143450    4.91649718574090
C         0.85811478866063   -1.38384138972598    3.54229782535270
C         1.87618308134121   -2.41583222079101    3.88869672559264
C         1.15023272686029   -0.13310240881532    2.90951885105236
C         2.49641881266291    0.28850877250952    2.43714941663686
C         0.00348260093936    0.73478344798296    3.08910337896372
C         0.02998445750391    2.18398441589967    2.83964081196121
C        -0.16413706469145    3.06269658057611    3.90323412953706
C        -0.08670975242839    4.42290823101147    3.67264906746569
F        -0.27141869257226    5.26628761328957    4.71054281842764
C         0.17473488725803    4.95547864155076    2.42342531021726
C         0.36184458673772    4.05580151074779    1.38880198370780
F         0.61434593893124    4.53767451119866    0.15311875596919
C         0.29985472060394    2.68854349064311    1.57005877042400
H        -2.42183553528068    1.56014149035346    4.11866777941708
H        -2.16356887077684    0.48597959945786    5.50444680166520
H        -3.09285729427852   -0.07532786423933    4.12546534590033
H        -0.84787470603354   -3.34440124566381    4.64694101031414
H        -0.85647204039452   -2.16013970868252    5.95289616376388
H        -2.22856266756929   -2.26064266087213    4.85199082072335
H         2.47163225058022   -2.03125377780666    4.71826980281225
H         1.41514487682524   -3.34366119762793    4.21386451039225
H         2.55447409502772   -2.60825277285751    3.06228956770833
H         3.02518610399832   -0.53783608484523    1.96961633052481
H         2.43040252647108    1.10968560104599    1.73008140843002
H         3.08065371263095    0.62219699973830    3.29609666666304
H        -0.35043829172974    2.70424128041491    4.90217326656530
H         0.22875738580089    6.01919055210737    2.26332598063445
H         0.42687192508583    2.02902700974928    0.72579679809271
C         6.42137603836478   -4.34599539608549   -1.05476609045063
C         5.21728059247837   -4.86520328037459   -0.27641536667355
C         4.02704001154867   -3.91248105637690   -0.37368262554952
C         2.82419054674832   -4.40928354061621    0.42691710565013
C         1.64331187596239   -3.44951854133885    0.30272209637701
C         0.44739681092730   -3.91440773586195    1.14487794985769
N        -0.62726252749768   -2.95616005410091    1.06043635314477
C        -1.67928830519819   -3.26813082088851    0.38900649210844
C        -2.69806999468939   -2.28129310474871    0.19737414701217
C        -3.81866952316081   -2.48646878168741   -0.60410540663715
C        -4.70694756726751   -1.45433035446109   -0.82620007558273
C        -4.43967121963125   -0.20839840047189   -0.25431475739326
O        -5.16848364644019    0.89454429724593   -0.37865916232483
C        -6.36098168893063    0.86611319981222   -1.15057304149307
C        -3.28152154830952   -0.09039260488329    0.54667450661627
Br       -2.95222913450082    1.62315713298741    1.25185051280109
N        -2.45190014342244   -1.08595008233299    0.79661098789589
H         6.74294248978233   -3.38162645138002   -0.66658824099503
H         6.17420239681687   -4.22397495058915   -2.10749413424490
H         7.25525423865710   -5.04023330769824   -0.97849417088044
H         5.49579989609656   -4.99484159374869    0.77193691255590
H         4.93151918615624   -5.84475968771860   -0.66632131464482
H         3.74435041409026   -3.79836561677922   -1.42230026335883
H         4.32786651630694   -2.92801309137383   -0.00855604549346
H         2.53470487696124   -5.39653277753306    0.06207928242840
H         3.11122567350391   -4.51658703745685    1.47485418740763
H         1.33627706079408   -3.37910929525568   -0.74144548333267
H         1.93880814591890   -2.44775760121317    0.61838114874124
H         0.75470402418511   -4.01095585846411    2.18604469616250
H         0.10862381637724   -4.89073664971795    0.78539139994060
H        -1.79398594218310   -4.24596598834069   -0.06793923489631
H        -3.97788182071980   -3.45119372839264   -1.05735170295357
H        -5.57680560167353   -1.60443151621774   -1.44432120910812
H        -6.14608809198644    0.62080754636568   -2.19263033080211
H        -7.07761526683807    0.15534544480592   -0.73426830143031
H        -6.76566660979274    1.87384086103130   -1.08840298307343
Cl        0.16370357085661   -0.33170240613858   -0.34553351081144
