66
 energy: -104.344687582503 gnorm: 0.000952839702 xtb: 6.4.1 (afa7bdf)
Ir       -1.28938433739968   -1.05014852106004    1.23782256133875
C        -2.67253083059037    0.93163425955613    3.72132171550947
C        -1.51186828746220    0.19597049293367    3.14694959751967
C        -1.19755474637849   -1.17678618813583    3.45415412165916
C        -1.96355827853633   -2.03228486971313    4.40473016078853
C         0.12613008569070   -1.45291113993591    2.95214237718238
C         0.93949814045988   -2.65250708592936    3.29261542548145
C         0.56515594844157   -0.31018692402857    2.23010557611262
C         1.91600251799620   -0.07745654977955    1.64765002756623
C        -0.45386082748900    0.71976578321459    2.35349778836527
C        -0.24330854823299    2.13405560901472    1.92876681816392
H        -2.47884051704379    1.10707002860327    4.78019685044868
H        -3.58742334777999    0.34977408747937    3.64351699543234
H        -2.82434509011785    1.89034855548759    3.23690426998369
H        -3.03344999527537   -1.87520818273441    4.29748114718019
H        -1.74230311463212   -3.08492642264506    4.25428145737136
H        -1.68515844589169   -1.77092953325836    5.42643808836195
H         0.32238388669198   -3.54027493576651    3.39963322384243
H         1.70290222510740   -2.84291693167629    2.54368336627938
H         1.43778944775210   -2.47143511781756    4.24587332839027
H         1.83591247527920    0.40997170409411    0.67844863411985
H         2.46312467510565   -1.00803322098918    1.53064105444695
H         2.48409012122938    0.57831088886914    2.30799577594181
H        -1.11348406679992    2.74996439926379    2.13432018144859
H        -0.01281169151481    2.18711849684414    0.86610372692549
H         0.60762973595410    2.54511833601614    2.47132506382557
C        -8.61996878826700    4.43675621440379   -0.40332989757047
C        -8.03886750275020    3.03216669248767   -0.38681793480651
O        -6.66983028680953    3.13024630007616   -0.00694273435580
C        -5.92210339620732    2.02800982993578    0.08197781582801
C        -4.56111266899297    2.24653213945593    0.42849478670458
C        -3.69488700619445    1.20779977403154    0.57659511862082
C        -4.11731970091816   -0.12450655484600    0.37320683615236
N        -3.25161657745885   -1.14992982328704    0.51924688901340
C        -3.63224156981072   -2.38588644101071    0.14281800554341
C        -2.58599136281854   -3.35309489472585    0.14004293243096
N        -1.41186482825970   -2.95567406084551    0.52640422535381
C        -0.32066336956266   -3.82464984585713    0.48352158163266
C         0.88039623392465   -3.37926079169387   -0.07673842449469
C         1.96604741874156   -4.22608044846826   -0.14020896530676
C         1.86149591372948   -5.51513025756530    0.37988120235870
N         2.99166035443165   -6.39478951472256    0.32114294338361
O         2.89226256855007   -7.49060367595616    0.84302957938445
O         3.99462502615581   -6.00156428782632   -0.24766984270021
C         0.67529771812073   -5.96198784392883    0.95678524170708
C        -0.41574259904417   -5.12012659623253    1.00298713956309
C        -4.94790466019102   -2.67622280576405   -0.27416177262112
C        -5.86977034106841   -1.67207749850847   -0.32324762965123
C        -5.46981418415660   -0.34747245266894   -0.03102889066606
C        -6.35306543722361    0.73494605985311   -0.14904140980842
H        -8.54911304325373    4.88436733355344    0.58389387196007
H        -9.66365547490375    4.39523380260420   -0.69999163516912
H        -8.07584526017435    5.05933463085282   -1.10805733335470
H        -8.11095665044945    2.57809216426173   -1.38274184025365
H        -8.57701673428950    2.40546725555046    0.33469430859949
H        -4.24142452349890    3.26817117248030    0.55669235420232
H        -2.65375663486226    1.38415009435799    0.79161586639479
H        -2.75065110394571   -4.35078147644166   -0.25071501351763
H         0.93187855480917   -2.37930609307349   -0.48013067266716
H         2.89697669151880   -3.91008750270021   -0.58433157874680
H         0.62712013968374   -6.96369235584451    1.35502482137722
H        -1.33591363976472   -5.45229669745951    1.45737486476176
H        -5.19964028426237   -3.68960794791665   -0.54002848623082
H        -6.89120740704887   -1.86550615185683   -0.61164633901581
H        -7.36773692938081    0.52656332747528   -0.44684450720122
Cl       -0.68869978865743   -0.27915479008983   -0.94244781052579
