68
 energy: -110.886882656848 gnorm: 0.000544656938 xtb: 6.4.1 (afa7bdf)
Ir       -0.31247808792311   -0.94773583962281    1.42836617943743
C        -1.95119282477799    0.39494946458453    4.07137736431242
C        -0.65709682150445    0.05487904927435    3.41568620622503
C         0.09058858704538   -1.13893586981074    3.66231204622907
C        -0.27884591610074   -2.15747404013574    4.68546156105707
C         1.34177796563441   -1.03609818449358    2.95666820427692
C         2.51274628280591   -1.95205303721936    3.08956713216000
C         1.38589442336201    0.24057166406587    2.31786593815722
C         2.58196443862712    0.83584601933755    1.66558717738486
C         0.12689520067094    0.90112755290880    2.55426968885434
C        -0.15615735143364    2.30076237655309    2.20599895266654
C        -0.51509710198159    3.20826405621569    3.20112049613689
C        -0.72937295691490    4.52996660495108    2.85841745612539
F        -1.06815215728006    5.40233119093945    3.82990057254128
C        -0.60738592158639    4.99476391191159    1.56087913841782
C        -0.25246677385008    4.06861392440081    0.59509470091278
F        -0.12843674963110    4.48348441633967   -0.68191567137492
C        -0.02495325301487    2.73790322609917    0.88829603234897
H        -2.43160317480167    1.24030476289495    3.58776269188100
H        -1.76517894657854    0.65355810261589    5.11457918150417
H        -2.62939367532946   -0.45506807329238    4.06222822341110
H         0.41938053201666   -2.98794761595527    4.68465818884623
H        -0.24640241349269   -1.68692964645367    5.66901945828620
H        -1.28968063210073   -2.52974355247383    4.53506290830471
H         3.09929795757532   -1.66252425420263    3.96221423421614
H         2.19789232939964   -2.98425782724911    3.21212016330762
H         3.14870643993873   -1.88747711481870    2.21102377366654
H         2.79302114231898    0.34834248978261    0.71397943035615
H         2.42922658695664    1.89560376249478    1.47749222296148
H         3.45059058861523    0.70434011010694    2.30942051895865
H        -0.59904046696026    2.90711451226930    4.23199605460514
H        -0.77657739882917    6.02966003053830    1.31480861847841
H         0.23629848843748    2.04957173973965    0.09943408819713
C         5.10288644563360   -8.99437525754364    0.94003774204758
O         4.78872734566929   -8.27419317555984   -0.23553025474701
C         3.84655747791971   -7.30633286596087   -0.17762127488669
C         3.60401915762940   -6.63751465655437   -1.40471708264843
C         2.68240410899258   -5.63998232557417   -1.48497151639372
C         1.94129964905916   -5.24638091682698   -0.34559768237874
C         0.97564382515110   -4.23074647162543   -0.40336726689829
C         0.29174665301972   -3.84782631446357    0.73206634842817
N        -0.65333194649048   -2.81401697829727    0.67108251435814
C        -1.63879702464808   -2.90568857528072   -0.16551389031738
C        -2.50933275540138   -1.77312937539089   -0.27680515257139
C        -3.62925242313922   -1.71060802906255   -1.10741949895524
C        -4.37315120756684   -0.54678983991759   -1.14160755717942
C        -3.97285059150032    0.52614629032082   -0.35112901152302
C        -2.85007868850238    0.39699876136092    0.44656132780459
N        -2.13557507465863   -0.72432822630989    0.49831937933772
C         0.53234401979107   -4.50392689526797    1.95795636087400
C         1.44173159506724   -5.51942573390585    2.02402521097079
C         2.18191661699063   -5.91383391607024    0.88624784993873
C         3.13954501888721   -6.94268499435396    0.94705424484509
H         5.49030508968170   -8.33104745302339    1.71831709049575
H         5.87564962361933   -9.70369538926657    0.65046337404015
H         4.23163102067589   -9.53815873997219    1.31545393038108
H         4.17591910443569   -6.94966852249177   -2.26410998431121
H         2.50501567283104   -5.13558012077767   -2.42262637757159
H         0.80400352979383   -3.71151530377252   -1.33428488799057
H        -1.79558076347423   -3.79760943069305   -0.76073029611325
H        -3.88969912242776   -2.56365434871675   -1.71290776105978
H        -5.24334472491397   -0.46801738338842   -1.77386940427135
H        -4.52222701638873    1.45313997436194   -0.35187494000832
H        -2.51268107806465    1.21939191939112    1.05976193452111
H        -0.05177682627755   -4.21959687723934    2.81717131665456
H         1.60748702013954   -6.04078498471110    2.95484417756634
H         3.30178902703445   -7.43317375662678    1.89360807106874
Cl        0.56742190233759   -0.54088599978019   -0.74459796625115
