62
 energy: -107.458702260842 gnorm: 0.000649914463 xtb: 6.4.1 (afa7bdf)
Ir       -0.68043850403621   -1.37526351596129    1.66481815526629
C        -2.07160587448310    0.63215645441450    4.06338059884706
C        -0.86775958528636    0.02710170068916    3.42723149615186
C        -0.24962507187524   -1.19521680200856    3.86232338515504
C        -0.68327145549401   -1.98122370427683    5.05222631551770
C         1.01316047555405   -1.32588815447645    3.16878428119718
C         2.08969950092271   -2.30730795287216    3.48772705445204
C         1.14227271037723   -0.22294737314521    2.28442264611151
C         2.34549603331924    0.14671777307745    1.49394638627673
C        -0.04662504032515    0.59896405407140    2.40677081300888
C        -0.19828906583085    1.93706329727953    1.76586147860264
H        -1.79950670917583    0.97209598094178    5.06310111772666
H        -2.87669580006835   -0.09138419683696    4.16800704210756
H        -2.43044569711349    1.49053344699952    3.50396983390224
H        -1.76658518298112   -2.03399450147634    5.11731302977908
H        -0.27167866897944   -2.98571231323640    5.04392856014984
H        -0.31974744976585   -1.47901207872255    5.94988069547682
H         1.70432985873503   -3.15434025714937    4.04530615472775
H         2.57524901709483   -2.67155617819834    2.58463154654209
H         2.84535982443724   -1.81251977637993    4.09857845245009
H         2.06891996227893    0.45878222737628    0.48903286546573
H         3.04238184537768   -0.68310489949623    1.42215051293596
H         2.84652021334106    0.98537509674912    1.97896154009477
H        -1.20164402674724    2.33265065854588    1.89245839329973
H         0.02102505542068    1.87578917028747    0.70195329622385
H         0.50871191333406    2.63568964515505    2.21416244620216
O        -0.22176858364952   -4.85413096238611    3.38642782967507
C         0.53399267901101   -4.94790038400799    2.28484210237332
C         1.64927181600473   -5.78425915899839    2.30485902969543
C         2.44511951683897   -5.92756550129126    1.18769470353909
C         2.12641028779078   -5.23895313620847    0.02061449822500
C         2.99617543278232   -5.36010828090644   -1.19435656759999
F         3.68621313739845   -6.51154517713237   -1.23955873156569
F         3.92009574190334   -4.37366530328576   -1.26248650819886
F         2.30161267781943   -5.28875667551969   -2.34442733466050
C         1.02157023426397   -4.40246556612141   -0.02371953044221
C         0.23137505603419   -4.24295995390218    1.10690128103103
N        -0.85911800188573   -3.35078992473286    1.08266998289050
C        -1.88268275018111   -3.60310353643906    0.32325556965180
C        -2.89640516326535   -2.60449100156168    0.25153943738453
C        -4.07846609819960   -2.72473073045593   -0.48892426827368
C        -4.95729090835314   -1.67086662637196   -0.53348053443279
C        -4.65067508961105   -0.48954798445687    0.16768188230844
C        -5.53784391697766    0.64067233669127    0.13273161138919
C        -5.45971198732170    1.89724236625955    0.70188975087538
C        -6.62027471751134    2.58517444557828    0.30676221158177
C        -7.32739226770423    1.71046405842234   -0.47176389867054
O        -6.68746265503440    0.54575722803239   -0.58079934771531
C        -3.45466282589176   -0.45222217354769    0.89425692405090
N        -2.60817664021686   -1.46831600043633    0.94395830503202
H        -1.01842591587647   -4.32451528935963    3.22922817912494
H         1.87162875417488   -6.32017842549706    3.21279621696414
H         3.30612793641201   -6.57633637131040    1.21209668792344
H         0.78360195400263   -3.84571222097553   -0.91674869815977
H        -1.95736349243998   -4.52519776432225   -0.24169535753968
H        -4.27371899141195   -3.63857648065321   -1.02638170685225
H        -5.87115325941928   -1.73003865195252   -1.10226492242605
H        -4.67628047712205    2.28223041132621    1.31967116367156
H        -6.89643029902651    3.58745146988504    0.56022792121728
H        -8.26534730821429    1.80837200827633   -0.98211310154408
H        -3.18488095032689    0.43359995818197    1.44654812707120
Cl       -0.14729520284810   -1.00614780217738   -0.63911500527195
