86
 energy: -139.305732029461 gnorm: 0.000653626496 xtb: 6.4.1 (afa7bdf)
Ir       -0.81505198618033   -0.21201358380270    1.49962359515957
C        -1.87878425872134    1.32755554284551    4.35621097816780
C        -0.76364898453944    0.75311403768269    3.55634625719359
C        -0.34527210700963   -0.61250655382181    3.63396446545520
C         0.87430074536188   -0.74845571879617    2.87378686368610
C         1.79215116546636   -1.92052288664685    2.90982258523966
C         1.16542396049500    0.50877006826255    2.27466350841619
C         0.13719291596861    1.45308693153278    2.68205920694181
C         0.27973413708805    2.90257442129794    2.52257837620818
C         0.15258172384754    3.74724182281239    3.62604884246776
C         0.42876855863048    5.09394841242150    3.51404258091169
C         0.84741482946031    5.64460093417935    2.30346064412490
C         1.20443302346461    7.06658530136826    2.21197346628815
C         2.28452957590410    7.47611211613671    1.43052446154550
C         2.63625717910120    8.81135320544073    1.35670053298319
C         1.91273598417716    9.76244275396177    2.05837618818852
C         0.83504582832599    9.36789282978460    2.83515980488058
C         0.48537841149231    8.03192424178901    2.91597773430256
C         0.94843810802084    4.80226344374080    1.19701611755951
C         0.66713458172634    3.45557776002584    1.30177590707300
C         2.41768662110920    0.84697941513116    1.54341235153107
C        -0.91400259694886   -1.63727709791594    4.55448854771043
H        -1.56933941502655    1.38086441485637    5.40091900823457
H        -2.76128479403624    0.69313488999429    4.31076510567109
H        -2.13402406784112    2.32444111560996    4.01194270677042
H         2.51306567388711   -1.76941817022507    3.71481400916755
H         2.34084579591549   -2.02292713290862    1.97772227134147
H         1.25632137270925   -2.84419340295932    3.10765973726913
H        -0.10809502343493    3.34349548762580    4.59081478559581
H         0.35811738153165    5.72359732978969    4.38805663720816
H         2.86677354111581    6.74117857358799    0.89477939354394
H         3.47913895547809    9.11208011731323    0.75165795497065
H         2.18580522666009   10.80575531463867    1.99938755079305
H         0.26019118992878   10.10475503348116    3.37688454701563
H        -0.37582001004356    7.74188463761305    3.49901092006431
H         1.24042007858005    5.21129106262917    0.24169228057950
H         0.73340893350261    2.82415461877829    0.43004464985371
H         2.28007298409648    0.76111869414134    0.46640077139641
H         2.70445213379424    1.87394568843880    1.75838111315226
H         3.22063264114533    0.17717582301223    1.83842150194187
H        -1.98518702805109   -1.50471023235578    4.67903138342887
H        -0.71799939335246   -2.64329843513232    4.19397038591868
H        -0.44554828678539   -1.53392801256179    5.53397583280685
C        -1.34248167716240    8.24121950598666   -0.21315232100418
O        -1.59809943270653    6.85538966309275   -0.01372730350774
C        -2.19987500540038    6.50385119011224    1.12391395658844
O        -2.51532336379659    7.29047795899054    1.98905348531909
C        -2.48182090075482    5.04695614455791    1.18551886461113
C        -3.28587061759697    4.56848343802803    2.21835283229631
C        -3.65456438234995    3.23949087921876    2.25273211847664
C        -3.18137033983979    2.35564325279969    1.28104571600875
C        -3.70899725277880    0.98473316615068    1.18987406449954
C        -5.09899904004173    0.84143401052291    1.12542945785968
C        -5.66572308922678   -0.39096692083505    0.85468840477865
C        -4.82123403636134   -1.46494072780876    0.63057455030641
C        -3.44846144778971   -1.27654665152024    0.76330714120860
C        -2.50771196556346   -2.34049421410324    0.57128698260453
N        -1.26232369061113   -2.09826311341146    0.81111122387752
C        -0.31336237376228   -3.11287069066879    0.64992178991023
C        -0.51334436739954   -4.35932498690860    1.25339388474403
C         0.42198370089451   -5.36004004584432    1.09379554481602
C         1.55680750866211   -5.11860040623603    0.32357188924082
N         2.52505982088295   -6.16279725509920    0.14794016312874
O         2.32526874742780   -7.22711262390487    0.70482774288656
O         3.49583778490234   -5.93138884866509   -0.54928153664125
C         1.76598175087981   -3.87964532776413   -0.27792796034835
C         0.83642942104069   -2.87548452628364   -0.10693805494635
N        -2.89599481472505   -0.07241774534685    1.07215884756985
C        -2.34800827380171    2.82875284984419    0.27025383574589
C        -2.01198787119268    4.16785724958717    0.21490652399050
H        -1.03335391529789    8.34341179652203   -1.24952957574471
H        -0.55226425888149    8.57914418189470    0.45958824899569
H        -2.24496820704118    8.82304716953263   -0.01878829125998
H        -3.63783550245798    5.26356284750582    2.96517158627127
H        -4.31269804159104    2.88475198939396    3.03110492518013
H        -5.71344535985178    1.71772369633282    1.25671503597221
H        -6.73635041146393   -0.50393932430931    0.79460020587410
H        -5.20433989005299   -2.43840998418221    0.37076374749317
H        -2.83961652525954   -3.30251176841296    0.19553097950470
H        -1.39162565256221   -4.53018339962116    1.85659198644905
H         0.28959486315001   -6.32873365658935    1.55029740621079
H         2.65462038635821   -3.72332530397818   -0.86950082420176
H         0.96959211744561   -1.91170818404191   -0.57323993377982
H        -2.00240279212112    2.15700969029343   -0.49801848379499
H        -1.40422069200785    4.54172328827857   -0.59203372234947
Cl       -0.29420821692602    0.31010692514553   -0.76053669671976
