63
 energy: -109.202187496839 gnorm: 0.000776890266 xtb: 6.4.1 (afa7bdf)
Ir       -0.59198398654050   -0.54726131446199    1.57307759929681
C        -1.89787421997152    1.24825384908427    4.21986531885667
C        -0.73509863616629    0.58514587762212    3.57456995543868
C        -0.36441243178227   -0.78418890531150    3.79136157183155
C        -1.04904694322919   -1.71506982039948    4.73165780954128
C         0.91841581429110   -0.99972310016951    3.17836194181682
C         1.81481161272943   -2.16197915044584    3.42415712933971
C         1.29106408699559    0.20175004466538    2.49849266914201
C         2.62580946275828    0.46910799536319    1.90027061286330
C         0.25681170701077    1.18879656624277    2.74229439308245
C         0.40531892674129    2.62548170226058    2.46289519154008
C         0.36594649173042    3.53069268678327    3.52086129475653
C         0.54987135721742    4.87572814069934    3.26122005561249
F         0.51678471176981    5.74400031351216    4.29252702620168
C         0.76375972439847    5.36671517961059    1.98585804719496
C         0.79596185216626    4.44110296190917    0.95743019348835
F         0.98679000295246    4.88507779524813   -0.30298641405870
C         0.62779234916313    3.08616954379381    1.16704725338041
H        -2.04547911087960    2.25160747594119    3.83405340655754
H        -1.71493319297555    1.30283180479582    5.29376387446808
H        -2.81024020500380    0.67341634165138    4.07677462325389
H        -0.81776479764997   -2.75021488231891    4.49773998829148
H        -0.70413298747668   -1.51203802111195    5.74616282588088
H        -2.12582103600366   -1.57329789048915    4.70958073703187
H         2.36338873827031   -1.97772816357156    4.34873692914311
H         1.25614545414317   -3.08554259821935    3.54330168884572
H         2.53683044996494   -2.28193681488573    2.62239470361847
H         2.93602749936640   -0.34306603742629    1.24798848256367
H         2.62133882509478    1.39377363839355    1.33211850122391
H         3.35884775641357    0.55589160891808    2.70297363743509
H         0.22050730845174    3.20175815121807    4.53633843095069
H         0.89979764173668    6.41933768002930    1.80178804072920
H         0.64070533035427    2.40509728355910    0.33015927239956
C        -3.07718805635944    3.43494611524108   -0.11636714509122
S        -2.47346001762806    2.18156680877544    1.04926790932020
C        -3.29346007812515    0.71134247136786    0.60802984896623
N        -2.58972387712659   -0.41065082777407    0.81448827733060
C        -3.08224973841873   -1.60071673023689    0.39388643914490
C        -2.16233780109075   -2.68818066041905    0.51167476930310
N        -0.96783109254323   -2.41844238380493    0.93813567657999
C        -0.01079438205059   -3.44561100818402    0.97889426554631
C        -0.30882808520133   -4.67687397557107    1.56616042868363
C         0.63410298700624   -5.68695318323673    1.57118372642222
C         1.86054116357045   -5.45928666512055    0.96682866120349
F         2.77472406725797   -6.44604155905840    0.95753791395845
C         2.17587201831789   -4.24493741666209    0.37662222163966
C         1.23873328197034   -3.23043793265055    0.39543492759551
C        -4.34325465833731   -1.72042196502553   -0.19125552609326
C        -5.11985999978148   -0.58835378250924   -0.32116249852910
C        -4.60171642032226    0.64607317031695    0.08254425750586
C        -5.46122901770560    1.76543845657923    0.02434574488639
N        -6.22509918433912    2.62028760838680   -0.00222732812881
H        -3.27117464646305    2.97605396477084   -1.07968571026930
H        -2.25938208303119    4.14432463287293   -0.20849931676778
H        -3.95993861833311    3.93462718780092    0.26809253018436
H        -2.43564398863778   -3.68124641185553    0.17507617584753
H        -1.26617450068730   -4.83021697315763    2.03931859984013
H         0.43048993025787   -6.64203559630281    2.02793021193487
H         3.13868077097502   -4.11018949855600   -0.08906778153190
H         1.44298246453009   -2.28030731003859   -0.07399099569411
H        -4.69458373545177   -2.68148220059260   -0.52732063704658
H        -6.11924957928501   -0.63684869331613   -0.72587608847391
Cl        0.00317632156954    0.03391141472143   -0.64616834996701
