83
 energy: -111.780071421189 gnorm: 0.000367025887 xtb: 6.4.1 (afa7bdf)
Ir       -0.40241691095911   -0.71467591294809    1.65052353547245
C        -2.20455154194135    1.59553130593872    3.51296917792152
C        -1.00695793776591    0.73030240771122    3.30611272671891
C        -0.94916239706094   -0.62929959554072    3.79974602101006
C        -2.05650057550230   -1.32703502029478    4.51601409137484
C         0.41291604553312   -1.05757942529680    3.77537139968255
C         0.91024708420206   -2.27508957095905    4.47948347445006
C         1.17301802587656   -0.04435594730409    3.11284476325402
C         2.66365059055621    0.03218416807465    3.02473212389824
C         0.29314300867305    1.09131852298040    2.86652871439201
C         0.83190456555904    2.45231129694900    2.51584119352522
C         0.13297697495108    3.18614502850476    1.36763480680533
C         0.85143645909113    4.50380924247026    1.08703933544612
C         0.86433063916277    5.38558652349672    2.33318629717630
C         1.53158824591196    4.65600919313821    3.49590733783760
C         0.82515854186184    3.33301489529611    3.77768840434191
H        -3.11958135294530    1.07275049345469    3.24454258730722
H        -2.14963079404345    2.51591858986823    2.94435943563420
H        -2.26516439777525    1.84582210760242    4.57334448472955
H        -1.90502154044342   -2.40277680600675    4.51290687873700
H        -2.08536623139210   -0.98990841284135    5.55303657794562
H        -3.02030413893342   -1.10419801516483    4.06537702167927
H         0.65346716431242   -2.18912380970923    5.53568602600068
H         0.44316887071061   -3.18186507763819    4.10018816521442
H         1.98874264254238   -2.37283498722193    4.40167166149850
H         3.12783671277170   -0.92197504336298    3.25079859246470
H         2.98101495000350    0.33865645433102    2.03075455335857
H         3.02946866959373    0.76843564263189    3.74080802607229
H         1.87329020962641    2.32102377975484    2.20796371721700
H        -0.90470078199101    3.40502053674758    1.62057022920838
H         0.15493946187068    2.56041871971960    0.47440659583118
H         0.35489920466192    5.02591506728935    0.26671658787789
H         1.87827914937880    4.30134687100673    0.77440300099689
H        -0.16099067856438    5.64555768505972    2.60744127159521
H         1.39697282921068    6.31570253301553    2.12491630369446
H         1.50815049798121    5.28133363208336    4.39092306463963
H         2.57912408360313    4.46732035580371    3.24974643621164
H        -0.20258102283310    3.53048305598396    4.08343751008843
H         1.32545282972492    2.81190669853592    4.59645706357980
C        -7.40883020115609    4.63894388670676   -0.64435480080597
C        -6.07062810950687    3.97089852102239   -0.37069083511815
O        -6.30548876336871    2.57251034552012   -0.24025450402966
C        -5.29205389741303    1.73516251823157    0.01484985969222
C        -3.94213769387894    2.13084472931499    0.17498392595594
C        -2.97361727855919    1.21031711136120    0.45949843996020
C        -3.28018389423122   -0.15800860106819    0.57849435141123
N        -2.30728631274243   -1.05520048834867    0.84168458472830
C        -2.58188856759627   -2.36404263202271    0.75785217389189
C        -1.41887008511956   -3.19912738912444    0.77148031938520
N        -0.26707514696902   -2.64486706988542    0.95075926273620
C         0.90249690036734   -3.42515116770366    0.58692088272409
C         2.20341511871163   -2.84457116812898    1.11809768832817
C         3.36468090166486   -3.81041593565785    0.84305006809452
C         3.17438854196827   -4.56576586845109   -0.47795006603711
C         2.39017743220069   -3.70453465288677   -1.46085367617410
C         0.96113820230234   -3.47578330827961   -0.95906831959678
C        -3.88913984358060   -2.84939093018398    0.54874825641910
C        -4.91298619774805   -1.96077358288124    0.39247514951749
C        -4.63129207253660   -0.57401593668690    0.36362077522125
C        -5.61056320609484    0.38864469332726    0.10899088729051
H        -7.26682343855583    5.71062720512395   -0.74735731070404
H        -7.84157562676487    4.24841660981101   -1.56108018980174
H        -8.09728225176283    4.44786929169314    0.17414647513140
H        -5.37839938852876    4.15554358573909   -1.20146697743820
H        -5.63572294966931    4.36199859292009    0.55719423922394
H        -3.66637756991190    3.16659810501976    0.06224118489757
H        -1.94111591431821    1.50641672465827    0.55268575935297
H        -1.51089915326514   -4.24929640385684    0.51493387614650
H         0.77683346455386   -4.44029405874051    0.98310926281720
H         2.37563294320992   -1.88620538258937    0.62952215283606
H         2.12207282538639   -2.67905708109612    2.18748321583981
H         3.45253703286687   -4.52970667631723    1.65905741545171
H         4.29296416040872   -3.23957333946704    0.81006862056265
H         2.63310491562634   -5.49872323021225   -0.30900619506927
H         4.14574737134886   -4.82720891787311   -0.89910691125454
H         2.90203335335374   -2.74983590082532   -1.58429884378343
H         2.35209138899305   -4.18405188106844   -2.43977819307817
H         0.30238138148959   -4.26905057733744   -1.31560828558529
H         0.58989251254800   -2.52792074156243   -1.35144655785963
H        -4.05384299548248   -3.91401816853272    0.52157138652592
H        -5.92963075661385   -2.29481351660621    0.25734010052159
H        -6.63427871320432    0.08632619791891   -0.04270572593641
Cl        0.42404942631952    0.03367630587233   -0.44773611726168
