61
 energy: -114.117169547218 gnorm: 0.000372864674 xtb: 6.4.1 (afa7bdf)
Ir       -0.30296182998516   -1.22718188991056    1.52007832916597
C        -1.92684681034894   -0.18036720071250    4.25594146377471
C        -0.62744881159396   -0.39532801416403    3.56305689554964
C         0.20009626787599   -1.55358096617297    3.68722843349052
C        -0.06636844127541   -2.73523174561718    4.55080392582341
C         1.41453810183242   -1.31485603152911    2.94914306601082
C         2.64757740034680   -2.14962591202598    3.01357000469896
C         1.36605955034144    0.02533498711591    2.42955202068678
C         2.50143955112281    0.73492211225482    1.78953524084736
C         0.08554855284929    0.57524872845116    2.75723337175559
C        -0.31915658526536    1.96454759014251    2.50011351629590
C        -0.78121046462894    2.77046322705586    3.53846647348653
C        -1.13636690068619    4.07830125561300    3.26425509662074
F        -1.57885575610515    4.85005492876574    4.27532960729485
C        -1.05858387010945    4.62490681563577    1.99547706174757
C        -0.59224028896717    3.80123262312217    0.98605684788061
F        -0.50322358926140    4.29354653791076   -0.26421523021347
C        -0.22003918471711    2.48931200274837    1.21041187258484
H        -2.48959283834328    0.62825752959654    3.79743615639259
H        -1.73702517265637    0.07745314545730    5.29863299371666
H        -2.53069029980362   -1.08459687149328    4.24868152567069
H         0.34240974036225   -3.64180770400092    4.11206605730326
H         0.41868300606431   -2.58072969734955    5.51513674071267
H        -1.12995128099516   -2.86694021599403    4.72365523973500
H         3.23989831537393   -1.82987348395861    3.87173034837461
H         2.40813791610659   -3.20078499318174    3.13958623033035
H         3.25001187544409   -2.02373295771926    2.11935638866632
H         2.66431995117754    0.37262644031692    0.77456979538604
H         2.31011436747904    1.80351981076199    1.74329549344760
H         3.41114552108679    0.55235462063434    2.35861370424249
H        -0.83986862141555    2.40729836394869    4.55074025652233
H        -1.34581832050118    5.64468873717412    1.80216930414742
H         0.12618289177545    1.88335034038390    0.38702332133340
F         2.48451892857163   -7.44814104189720    1.61129420836747
C         1.68493320769912   -6.38084868140663    1.43973987189921
C         2.21518261440406   -5.22544534142543    0.88505481879228
C         1.39485032893001   -4.12661251499744    0.72051557319238
C         0.05048448171352   -4.19828656037819    1.08928870585984
N        -0.77584386775677   -3.08234545937175    0.88545298218007
C        -1.90648810406819   -3.22882121667120    0.26209757471263
C        -2.70430702248878   -2.05493743178779    0.07729527873925
C        -3.89422393247870   -2.00498792194649   -0.65567318109525
C        -4.54974139907055   -0.79848098331193   -0.79153723723201
C        -3.98712153920828    0.33113850493140   -0.18897430944437
C        -4.66640200212108    1.66895088737711   -0.32380883976978
F        -4.67925661915985    2.09741396003069   -1.59546115796800
F        -5.94777981460895    1.62126495157590    0.07408489333124
F        -4.07286223266140    2.62524215350039    0.40349350260318
C        -2.80462369167559    0.21509563735129    0.52328787039491
N        -2.18144514961902   -0.94730554998621    0.66211956740518
C        -0.46543761887049   -5.37332359796391    1.64101401061729
C         0.35688763696930   -6.46772677266345    1.82801515554712
H         3.25131710309381   -5.20079809254268    0.58895109498827
H         1.76832678428220   -3.22051169846896    0.26912907666631
H        -2.21398145013221   -4.18680272079743   -0.14003052564422
H        -4.28304907170202   -2.90126184417990   -1.11173052780173
H        -5.47098018684773   -0.71845780354918   -1.34799770212210
H        -2.35212015106477    1.08097568977344    0.98668130911486
H        -1.49815502234351   -5.41484526057780    1.94913985109768
H        -0.01664919155738   -7.38092503746637    2.26247879774227
Cl        0.51529203726406   -0.78554636570051   -0.65951821579154
