78
 energy: -133.864959252828 gnorm: 0.000658122227 xtb: 6.4.1 (afa7bdf)
Ir       -0.77746105737108   -0.40871610766363    1.39301979795716
C        -1.56804778694740    1.76902682231400    3.98074616185022
C        -0.60040070153924    0.86353808802887    3.30694268019261
C        -0.49374209916421   -0.54349009008855    3.60377860397491
C        -1.30216514372348   -1.26644558548966    4.62718812132445
C         0.70698541505676   -1.03331530812754    2.99189380367597
C         1.35635351320718   -2.33834611887726    3.28940610659309
C         1.25491773700912    0.01222896988193    2.19218844400490
C         2.58367410760342   -0.02219242061275    1.51666926713632
C         0.45095647265113    1.21081257766942    2.41298508127360
C         0.87634250051460    2.55440215886486    2.00582324156796
C         0.86026554215535    3.60494423505890    2.92278498987084
C         1.32160246279618    4.84754355386041    2.53342260563670
F         1.28225842875687    5.85411639777496    3.43253476187009
C         1.82294770968363    5.10038311798455    1.27066489112984
C         1.83157999099240    4.03741908604040    0.38464762901562
F         2.30514288444087    4.23974089236416   -0.86235466971625
C         1.37110930717207    2.77943535117466    0.72142583436300
H        -1.61853316851069    2.73511598014599    3.49035645351669
H        -1.24586586951276    1.91093172742843    5.01367231914443
H        -2.56249899051770    1.33007304860138    4.00834879455453
H        -1.36808212230856   -2.32737200486567    4.40019787972922
H        -0.82614184924207   -1.15842257407971    5.60229024849958
H        -2.30653808781745   -0.85911209235367    4.69366042285231
H         2.02769145516383   -2.19835855935343    4.13792501839630
H         0.62540096468213   -3.09347685508274    3.56358130120938
H         1.93932125178136   -2.69644455051486    2.44591100163416
H         2.48319488007927   -0.20364165893987    0.44792673945117
H         3.08616425844574    0.93492155761347    1.64178558805126
H         3.20140791831268   -0.81055079082092    1.93698313313873
H         0.52615111193305    3.46594177630479    3.93673098399433
H         2.16997587385129    6.07895535649698    0.98618556324343
H         1.36179431539181    1.99987818716053   -0.02278302580497
C        -2.07709360247340    8.24055317390324    2.84302575433189
O        -2.49476558417995    6.90078596243252    2.59302489314661
C        -1.82948291416549    6.22495252663438    1.65661473546685
O        -0.91430418475477    6.69118313312535    1.01386847536370
C        -2.32498730705852    4.83318046620089    1.49449935055500
C        -1.67508616527416    4.00555076965610    0.58343114749458
C        -2.07216525819194    2.69323593257266    0.41652703913931
C        -3.15219647730071    2.19749619279332    1.14308469709162
C        -3.66790753193168    0.84393297455931    0.88105573613769
C        -5.03109715433493    0.73070882672562    0.58551211852745
C        -5.57688344621648   -0.49160381212564    0.23867574237818
C        -4.73573163723451   -1.58864386778855    0.17702588010952
C        -3.39303930229350   -1.42196389784757    0.50535751970091
C        -2.45503600148324   -2.50395615870068    0.43894716588401
N        -1.22746131687435   -2.26001313194511    0.75520758782218
C        -0.28144261691060   -3.29630365859845    0.69187253200725
C         0.91036461436518   -3.12449365304283    0.00360792157952
C         1.84346956521694   -4.16149961483280   -0.09089338132645
O         2.95478935738295   -3.88262634451723   -0.79587463849227
C         3.92455236225207   -4.89803392353863   -0.98857625347621
C         1.57625127801691   -5.37850832992867    0.54059361020472
C         0.40075037431533   -5.54929169660439    1.25246398603102
C        -0.51928423400445   -4.52518986418041    1.31872156992246
F        -1.65594562763207   -4.68988416864376    2.03508805319829
N        -2.86462740459197   -0.22691214453931    0.87811624208704
C        -3.82955640729694    3.04039479643248    2.02868038612649
C        -3.41053344976385    4.34239929196187    2.21851173902598
H        -1.99708605936770    8.79348148796033    1.90515075455588
H        -1.10340154164695    8.24039699105491    3.33832865015102
H        -2.83548958885591    8.67587111620539    3.48775986122746
H        -0.86158339941510    4.41474779385530    0.00606200839428
H        -1.57515466844577    2.06984788828693   -0.30836205873810
H        -5.63989155514978    1.62007251150599    0.60924697767469
H        -6.62607029864481   -0.58173734453736    0.00627652280257
H        -5.09635898662836   -2.56102457523421   -0.11617299887069
H        -2.77395306810266   -3.47969802682747    0.08969565986464
H         1.10733605670156   -2.19258417792362   -0.50046186989237
H         3.50049539536259   -5.75393179379523   -1.51960757472732
H         4.70128283043633   -4.44209439675115   -1.59862817100087
H         4.35279432104267   -5.22389458689175   -0.03738257060250
H         2.27393030394202   -6.19700516465634    0.48699832580120
H         0.18974619540192   -6.47983595536986    1.75439823555561
H        -4.67185686601565    2.66611755159551    2.59005737127281
H        -3.92042663445732    4.98628582904414    2.91643819501988
Cl       -0.27898658834358    0.03214790474503   -0.90192370201731
