71
 energy: -117.904408117147 gnorm: 0.000364893090 xtb: 6.4.1 (afa7bdf)
Ir       -0.38752881598961   -0.65822236253451    2.10814225282532
C        -2.54837915803354    1.16100335367234    4.06995184879308
C        -1.22893251042761    0.50502263810284    3.85716521038996
C        -0.88422696672158   -0.82629847414507    4.28457976352855
C        -1.79703337985793   -1.75194135297566    5.01501808814636
C         0.54456516328208   -0.96933480398754    4.18148516533330
C         1.33242162647060   -2.07575694994887    4.79256366484587
C         1.06649869775007    0.21340806239464    3.58839110777580
C         2.50551976624682    0.57170056230561    3.43301060465122
C        -0.04109872353356    1.13320214334400    3.38745537550132
C         0.09746089024710    2.55293591697365    3.02248834586355
C         0.89695935056502    3.37619533336610    3.81259481068814
C         1.01719115329541    4.71304046461059    3.48502309231072
F         1.79180253467030    5.50229338527780    4.25807539779809
C         0.37642060436865    5.27425749317490    2.39480414657745
C        -0.40686036298779    4.42990843969747    1.62831191087568
F        -1.04419624178566    4.93823062578750    0.55339194087136
C        -0.56434127899796    3.08860425376286    1.92153451831994
H        -2.61759897905825    2.09272639488659    3.51474653449516
H        -2.64975903565347    1.39262022227109    5.13133192942566
H        -3.37256522494274    0.50591879760749    3.79758189246187
H        -1.48016977993516   -2.78479241554995    4.90560047095475
H        -1.78251546382529   -1.50423389786443    6.07693277981722
H        -2.81886838393869   -1.65592696608283    4.65971339283989
H         1.43625932239112   -1.86950900778466    5.85883578526897
H         0.82738745071431   -3.03200898805771    4.69097074713190
H         2.32844225422791   -2.14198237361525    4.36752650278914
H         3.09568037154546   -0.28133171101519    3.11187269455934
H         2.62312631029856    1.36866671260104    2.70366487005360
H         2.90162119697845    0.91330776416870    4.38990763592469
H         1.41068570110515    2.99340056487860    4.67884970025981
H         0.48762788998474    6.31736796228025    2.15040184220586
H        -1.15344180299321    2.46715785941059    1.26679923754071
C         5.59064586092524   -2.55627686550809   -1.84615565403768
O         4.85583333531525   -3.00687907428792   -0.70849010784038
C         3.58217295563148   -3.34550840258216   -0.89527488359287
O         3.01674986454311   -3.31358810873699   -1.96063649554110
C         2.94068056893096   -3.74518507060252    0.41480096785788
C         2.42295519974315   -2.56072707575674    1.26132342941459
C         1.07068567785558   -3.28536983774320    1.41036635748936
N        -0.10333032257989   -2.47567281796316    1.21839343369706
C        -1.01718586079213   -2.84639212843684    0.38631509651279
C        -2.13191068541073   -1.97233342300339    0.19227161074725
C        -3.16690566041614   -2.19669859905095   -0.72100155432872
C        -4.16299816211014   -1.25915088980673   -0.86166560485457
C        -4.11525718232274   -0.09132770966587   -0.08261939636451
C        -5.11781034593490    0.93491055862407   -0.17242799612789
C        -6.26224027580352    1.03530402391385   -0.93805074126927
C        -6.85403987313569    2.26798088030101   -0.60592881273634
C        -6.03998907558635    2.83476253003608    0.33437043003670
O        -4.99764532613929    2.04397569470778    0.60141220100432
C        -3.04583551064922    0.05434388436310    0.81163388963553
N        -2.09346202105942   -0.85111826184590    0.95414463141082
C         1.50447188777709   -4.27650769445374    0.31051585176842
H         5.81031096241114   -3.39687782243448   -2.50639469927323
H         5.01257563201920   -1.81287429964191   -2.39738884805481
H         6.50946638701638   -2.12463497212277   -1.45928331182847
H         3.62830365520083   -4.38447567833175    0.96596231727845
H         2.32526705214518   -1.64195472770939    0.68781539568724
H         2.97559769127495   -2.37119873535331    2.17452896061247
H         0.98189520912447   -3.77250041156430    2.38503605167628
H        -0.95470024520188   -3.77694565100567   -0.16374559937386
H        -3.16412399047459   -3.09830485454949   -1.31175705046668
H        -4.96590653239740   -1.41143781330044   -1.56341359348123
H        -6.63484821799934    0.32391697282700   -1.64535467888249
H        -7.75685729328480    2.67911728598480   -1.00713273540843
H        -6.10176130048833    3.76544966799815    0.86321053676490
H        -2.99127446335030    0.94258601599819    1.42236336371973
H         1.35927579618816   -5.33107779576757    0.52518518600752
H         1.10397102411953   -4.03545637425855   -0.67235255149991
Cl        0.56725540941996    0.29727993371639    0.14167334281906
