87
 energy: -130.218949274500 gnorm: 0.000576094017 xtb: 6.4.1 (afa7bdf)
Ir       -0.18355354696303    0.28770670083877    1.87752125783111
C        -1.37968649937526    2.29549666218914    4.42753647137802
C        -0.28157674369050    1.49681029551782    3.81820847692279
C        -0.06390044273601    0.09487384988312    4.08132002738210
C         1.22543175489240   -0.25447209500062    3.56090615162402
C         1.97184204941472   -1.50918293208331    3.84811525847964
C         1.73156828733928    0.87098784917674    2.84553012149232
C         0.80276805394963    1.97637687088443    3.03429615092095
C         1.10862400368359    3.38229999254709    2.72979425318419
C         1.13044394508429    4.31372069749113    3.76741483026228
C         1.46416374908301    5.63050201005029    3.52062450153058
C         1.78612810101655    6.05808824801939    2.23351991704497
C         2.14405626811501    7.46056741024531    1.97391289661372
C         3.18144780242660    7.77817213049727    1.09928111653921
C         3.52014847701932    9.09701399047831    0.85833100991086
C         2.82497347498043   10.12066835194969    1.48165688281106
C         1.79022125595441    9.81662886945023    2.35124532210476
C         1.45423381505837    8.49828259038914    2.59814777024900
C         1.76004969272534    5.12304555580636    1.19946818200135
C         1.42811667303982    3.80509337720881    1.44102187989043
C         3.11152583121142    0.99746251898045    2.30095537958041
C        -0.89002214026998   -0.72701566178265    5.01245674294946
H        -1.19582664763845    2.37867064651464    5.49940558520214
H        -2.34265738526632    1.80889613513714    4.29659550276921
H        -1.41750393349321    3.29274504841702    4.00290079852815
H         2.54623995367336   -1.36744277831797    4.76444981174382
H         2.66759732399068   -1.75039768220721    3.04921469287805
H         1.29992363435953   -2.34979671888618    3.99681270017193
H         0.91377012119083    3.99790113083634    4.77623086032737
H         1.49930134648510    6.33289134073012    4.33982365583150
H         3.73991371336373    6.98653524808548    0.62118916937098
H         4.33090267260315    9.32896220447127    0.18262636790187
H         3.08880888454356   11.15056737318968    1.29043521850485
H         1.24317554322620   10.61139331719539    2.83773311031974
H         0.63679680252546    8.27192408997337    3.26695574766862
H         1.98422433316646    5.43843487982684    0.19156281348431
H         1.38554942562547    3.10255363761813    0.62263073605789
H         3.44582993674108    0.06369007480916    1.85625594181168
H         3.16650060484180    1.78664118058654    1.55661590804497
H         3.79181231813276    1.24877308877045    3.11629321512104
H        -1.94497989736305   -0.48714497556175    4.91110300140979
H        -0.74939724123015   -1.78844012993014    4.82988203798776
H        -0.59271898270891   -0.51715368897353    6.04058787980232
C         0.38430986659980   -6.53384745887577    2.21360781453739
O         1.57998535670464   -6.00254852655215    1.67132040258304
C         1.60793385093560   -4.71063260985115    1.29308629070405
C         0.56112493031020   -3.80496036732059    1.42210764949902
C         0.70469151436997   -2.48116946153994    0.99516063293813
N        -0.36699100480722   -1.58646225057529    1.12872738785720
C        -1.56052973988276   -1.95956849191198    0.81556540750901
C        -2.64964879812078   -1.04446507287669    1.00481390650245
C        -3.95966106493384   -1.46996879036575    0.86125149605098
C        -4.97577136840216   -0.56414569671258    1.15216323496207
C        -4.63954172803327    0.72330619314708    1.47528234004382
C        -3.28306287373438    1.14781795545376    1.49998354781005
N        -2.97731099408373    2.44467541692329    1.71073973204936
C        -1.90102492801771    3.10767670176384    0.99669070074925
C        -2.46388999824496    3.80556253785964   -0.24510371628470
C        -3.54281164058265    4.81388201574833    0.14076099764798
C        -4.62570340421899    4.12174183168131    0.96598498330628
C        -3.97093174884429    3.41107210472526    2.15180221691887
N        -2.30144393611218    0.22315654608419    1.35457414458008
C         1.90465315961705   -2.04503406353428    0.44356912493928
C         2.95252975757718   -2.93791606066425    0.29879172743364
C         2.80211452183912   -4.24179156686495    0.71915087287569
F         3.83361325392822   -5.10155500439360    0.58099114269478
H         0.60226617028308   -7.58022182703576    2.41632326261395
H         0.11549791317613   -6.03156797523475    3.14613503458534
H        -0.43770674892192   -6.46606808012473    1.49651201114793
H        -0.36635683878893   -4.11164013072773    1.87810289526697
H        -1.75676555707408   -2.94066573586759    0.39649865552703
H        -4.17286005810428   -2.47992264503576    0.55669972992646
H        -6.01066620746163   -0.86243343950647    1.09922807363358
H        -5.42235962049692    1.43721194280637    1.65887837414419
H        -1.43942334064048    3.84625999412263    1.65473911541775
H        -1.14958393072221    2.38420241733362    0.69312820720814
H        -1.64715830545475    4.30348040869091   -0.76727653720656
H        -2.88256381389812    3.05423125695687   -0.91796663482760
H        -3.97777439889050    5.25770551577511   -0.75584922235444
H        -3.09563152139477    5.61932159798169    0.72692735702526
H        -5.15278294161025    3.40008828266257    0.33926057124898
H        -5.35073678595948    4.85012593117280    1.33040687679389
H        -3.43552545956208    4.15490649493590    2.74853280945705
H        -4.70645350698845    2.93666964083767    2.79934886192460
H         1.99394694194926   -1.02965478984474    0.09493634910811
H         3.88847847597107   -2.63428115256257   -0.14151029315387
Cl        0.33831716202938    0.84579270622342   -0.41394089102589
