70
 energy: -118.741498116565 gnorm: 0.000968543591 xtb: 6.4.1 (afa7bdf)
Ir       -0.50892661879408   -0.64839329399499    1.56712385612244
C        -1.97345168900439    1.05969854313096    4.21516348253622
C        -0.77050407894227    0.47555344686574    3.56974653632073
C        -0.32077864832836   -0.87193204861425    3.78502047323879
C         0.98626073462800   -1.00509832752634    3.19715414984205
C         1.93873688397079   -2.11503626159086    3.46878463153276
C         1.29144198759844    0.22009012108879    2.52054701544878
C         0.19446734721472    1.14578848892959    2.75479121018578
C         0.26582435009669    2.59051842356840    2.49358592725856
C         0.14822618710666    3.48175563818690    3.55990507495717
C         0.28724313138267    4.83950933744927    3.35421472221688
C         0.54717846976890    5.34882600436600    2.08319289132257
C         0.71948488669973    6.79349055616131    1.87182892544569
C         1.73077233648646    7.26928682150070    1.03935767269424
C         1.90368013690240    8.62791916098274    0.84866977581117
C         1.06391185467267    9.53219931523696    1.47847961892567
C         0.05240517220585    9.06959605028854    2.30467924922199
C        -0.11654057187260    7.71158839529025    2.50398595677704
C         0.65105938743342    4.45413560172564    1.01903701394259
C         0.51218022868130    3.09627990531934    1.21911306943424
C         2.60488274087259    0.59378910520497    1.93468648983618
C        -0.96338297172341   -1.84427538363231    4.71210709828844
H        -1.81337463445119    1.07125637634850    5.29413471008595
H        -2.85891809928047    0.45589075769737    4.02760666093956
H        -2.15273254199839    2.07338759495082    3.87309459889307
H         2.46514263321624   -1.88646560263357    4.39692055118208
H         2.67776663177237   -2.21339605629335    2.67947609881350
H         1.42692074801255   -3.06439337532291    3.59837684247555
H        -0.01429288570459    3.10853122407685    4.55884495376759
H         0.21939028442324    5.51415952693848    4.19411641275035
H         2.39953419376818    6.57138335066463    0.55699087600647
H         2.69715803459382    8.98472518182769    0.20795489312403
H         1.19778114802539   10.59309246933472    1.32564280172929
H        -0.60684607120875    9.77153291899631    2.79453023797772
H        -0.91729523087119    7.35770908548486    3.13671111735154
H         0.82595935593755    4.83067069469794    0.02251712134146
H         0.56460195882986    2.42306665542995    0.37776459329813
H         3.19291055311548   -0.28360850928078    1.68368820253320
H         2.47834360704147    1.20643655102539    1.04676873944049
H         3.15305584367347    1.18495707664805    2.66913927389749
H        -2.04599717993559   -1.75905936701177    4.68286140680119
H        -0.67734465636593   -2.86534845637169    4.47668099026506
H        -0.63711870779820   -1.62911945236293    5.73046643698984
O         3.43638581075159   -7.25505179018466    1.37740834936353
N         3.61084079334396   -6.16351462239062    0.87000288883548
O         4.65539604378899   -5.80573690108628    0.36050007193789
C         2.51231833722109   -5.23550624965780    0.87660465573440
C         1.29799332385883   -5.61773339635235    1.43947574407353
C         0.24000389037104   -4.73161154232587    1.43442449917609
C         0.40199023574411   -3.45931204903497    0.87928147497816
N        -0.66230526892224   -2.54960247076015    0.85329286281993
C        -1.79918398743858   -2.92248776984906    0.35597023044051
C        -2.82838291550424   -1.93751440621380    0.25567311885973
N        -2.50874514679394   -0.70878505549641    0.73590534390372
C        -3.36023044965197    0.29100811521100    0.51559065231356
Br       -2.84759639800033    2.02356218629573    1.03136748532009
C        -4.59696845395439    0.12019712364346   -0.09789198534052
C        -4.96706004967222   -1.13841098582217   -0.54449246498306
C        -4.05681251422815   -2.16598410336221   -0.37775001420152
F        -4.32566939701691   -3.39224740459858   -0.82730999616049
C         1.62888292497226   -3.07894040127027    0.32925690929069
C         2.68086554535471   -3.97119402358134    0.31728316026054
H         1.19945879496351   -6.60413962974249    1.86578062386945
H        -0.70453775292377   -5.01286375613085    1.87344800250067
H        -1.95404441576268   -3.91552068519323   -0.05161643253486
H        -5.25149770622216    0.96801377976587   -0.22278440308027
H        -5.91671228256777   -1.31649877635774   -1.02390905576656
H         1.72746355123847   -2.09779271477766   -0.10999819730071
H         3.63266736440154   -3.70801588757099   -0.11756807902784
Cl        0.05038788077262    0.01503917210879   -0.65245980630853
