59
 energy: -96.145068289795 gnorm: 0.000563700252 xtb: 6.4.1 (afa7bdf)
Ir       -0.45831808560770   -0.95557418141245    1.35537177974308
C        -1.91211518785039    1.56671161645520    3.17403243451467
C        -0.73080500162593    0.71539900576728    2.85219721649273
C        -0.39444942682187   -0.51695259230430    3.53562372165086
C        -1.16185932456134   -1.10018775653096    4.67241162465961
C         0.93281314985023   -0.89240547918865    3.13992348384454
C         1.74999616735782   -1.96898151156844    3.76294801143678
C         1.36727458146978    0.02566435531839    2.13532203693211
C         2.73772661428501    0.13570433671692    1.55979210685337
C         0.34427072381315    1.04783394000373    1.98956738024780
C         0.52491188946509    2.29713286045477    1.20002807424504
H        -1.66720757576483    2.18944212284717    4.03536932214931
H        -2.77570421348472    0.96185272227868    3.43775766829635
H        -2.16444078879746    2.22581932267473    2.34770414145190
H        -2.23251935950342   -0.98588610964671    4.52810352419784
H        -0.93500846671775   -2.15428242667210    4.80091058918379
H        -0.88657544992080   -0.57994357366199    5.59065553525542
H         1.12708671232182   -2.78733509606047    4.11245553507646
H         2.48813161368967   -2.36017859610850    3.06847799352406
H         2.27662791588996   -1.55331488500895    4.62287082221073
H         2.69251863391926    0.42730020519905    0.51318429203834
H         3.27974914336096   -0.80096841409799    1.64594136073040
H         3.29018302118806    0.90609528704260    2.09859230420609
H        -0.38151549138753    2.89362779530892    1.18004387133077
H         0.81264921851906    2.06408094465896    0.17667274856733
H         1.32431011297411    2.88855581003971    1.64641601193388
C         1.08495077887320   -7.42129510175607    2.88708498623025
O         2.21528886765548   -6.81589941760653    2.28462193699234
C         2.07205987022051   -5.62022870746344    1.68543602614635
C         0.88959206511237   -4.89266431101357    1.59774917766915
C         0.86728103430899   -3.65054474977962    0.96029305447896
N        -0.32818556192206   -2.92280053797078    0.87544028103959
C        -1.41009265691362   -3.49591019724614    0.45127455253648
C        -2.58245608135906   -2.68440367758300    0.36004402056501
C        -3.79691033295002   -3.11713666457326   -0.18437700386264
C        -4.83307699454898   -2.22148341989646   -0.29188337971395
Br       -6.51656050772084   -2.72727264330420   -1.01357109400597
C        -4.65781699506247   -0.88448467601815    0.13437545455421
O        -5.68990488056285   -0.06471573616999   -0.00867359791324
C        -5.57659406010229    1.29915090840292    0.37419893783136
C        -3.41731416715853   -0.54796985140190    0.68282154392440
N        -2.41798446186434   -1.41571600049113    0.79976988658847
C         2.02149461463892   -3.11900305577173    0.39513363965629
C         3.20148416281154   -3.84008473499022    0.45836979545279
C         3.22040098664334   -5.06165146225531    1.09732954903544
F         4.37905998331797   -5.74991049557829    1.16507334893921
H         0.30407772991543   -7.62088519205338    2.14962113841329
H         0.69152179591107   -6.80206401181396    3.69669854445906
H         1.44750014195197   -8.36251887577206    3.29413391447398
H        -0.01718616805238   -5.26878793973753    2.04240415843582
H        -1.41899544205641   -4.52803773126358    0.12249695022067
H        -3.90819483776144   -4.13438678998974   -0.52272420107289
H        -5.40399616399326    1.38790781877234    1.44843334058431
H        -4.78146618188362    1.79659231314442   -0.18392999355621
H        -6.53566511466345    1.74591916062833    0.12114934053689
H        -3.22456095740038    0.45423789673807    1.03159977393708
H         1.97371214653064   -2.17538206618169   -0.12286200173717
H         4.11029295212759   -3.46698690746318    0.01443838418401
Cl       -0.16448169008075   -0.48896384502844   -0.96583505581491
