51
 energy: -77.452552055216 gnorm: 0.000298770303 xtb: 6.4.1 (afa7bdf)
Ir       -0.49691869351042   -0.82096308549395    1.16131303724390
C        -1.92086434722371    1.57925707404115    3.17642227657775
C        -0.76610226428489    0.70824871373681    2.81357690463512
C        -0.51206941091912   -0.60230066163592    3.37198747166112
C        -1.34775387663246   -1.26906353852926    4.41093382296665
C         0.81980258784801   -0.99226553769584    2.99537795743798
C         1.56010445454606   -2.16217231978941    3.54309336696101
C         1.33349085426752    0.00138803079076    2.11296628372336
C         2.73014055287293    0.10897444158346    1.60270502419305
C         0.35497675486007    1.07298411248023    2.02643942400483
C         0.61491565181428    2.38578219203915    1.37312337400904
H        -1.68210307000097    2.10531989028359    4.10183320646974
H        -2.82181159359172    0.99627493906688    3.34868732407782
H        -2.11379369063024    2.32616762611357    2.41065678390120
H        -2.40519445022186   -1.07833953283268    4.25055337293736
H        -1.18017239920005   -2.34220822314902    4.42160658702725
H        -1.07810182500919   -0.87504597286723    5.39152190093040
H         0.89771703716674   -3.00446681968630    3.72370091133646
H         2.35568762919903   -2.47852756100798    2.87461388960323
H         2.00809392390511   -1.87559734424642    4.49501132362759
H         2.74022099247882    0.49762312592544    0.58721619222147
H         3.23359675837709   -0.85280106066333    1.61997192521130
H         3.28835441875016    0.80222231526060    2.23244190690309
H        -0.27804683715081    3.00264716896771    1.34484128688714
H         0.97207561684719    2.24376587640727    0.35493512655158
H         1.38852583916259    2.91550868324136    1.92941895539107
Br        4.59174373049692   -6.13841116756806    0.81866114522069
C         3.00155850258499   -5.06470206343485    0.72352793659722
C         3.06178173506116   -3.80253562533162    0.14843226364680
C         1.91956190347990   -3.02854628610902    0.08826797543936
C         0.71336169352046   -3.52280598365716    0.58387670335505
N        -0.44017127864662   -2.72987844296053    0.50315633099256
C        -1.51904021905645   -3.20893282104733   -0.03199583808957
C        -2.65003873992431   -2.33211924465929   -0.09017412588989
C        -3.86345868144307   -2.64469195204422   -0.70538418306686
C        -4.86417160257591   -1.69208407132052   -0.73559011820234
C        -4.62064614245822   -0.44900438870837   -0.16041113424141
C        -3.39290961817491   -0.20690936184031    0.43139566509875
N        -2.43005719457296   -1.12233317099678    0.48322188609828
C         0.66456082519931   -4.79470816314437    1.15462301987188
C         1.81098881472295   -5.56219198437558    1.23309223499073
H         3.99279818634440   -3.43160806457293   -0.24950552311481
H         1.93824073893475   -2.05327558175689   -0.37267325245640
H        -1.55211297422607   -4.20444217797327   -0.45879225448889
H        -3.99668690363003   -3.61568744118161   -1.15451231436996
H        -5.81268842805247   -1.90539610170112   -1.20237113296861
H        -5.37197262312888    0.32375526677751   -0.16818843464697
H        -3.17461835620428    0.75110702458587    0.87801761583360
H        -0.26362693284790   -5.16981790291031    1.55689392313010
H         1.78124211167174   -6.54082275960433    1.68425982663582
Cl       -0.03115516080163   -0.15057006682744   -1.08513185186396
