78
 energy: -106.242174267226 gnorm: 0.000442756889 xtb: 6.4.1 (afa7bdf)
Ir       -0.69254526442245   -0.43982630804391    1.91077566056357
C        -2.56180011855561    1.71372886854669    3.86563083389391
C        -1.29101610318962    1.00021323194819    3.54813368583097
C        -0.96592726028361   -0.27938660306554    4.13592214363947
C        -1.84219109756566   -1.04498566642635    5.06806742907089
C         0.43835907678056   -0.50838278346521    3.96553776556120
C         1.20330393265855   -1.50514623239788    4.76415568011477
C         0.93939416641851    0.51282490194745    3.10617485648776
C         2.37306414385966    0.74302659385352    2.75325797463478
C        -0.12854172550733    1.48767005552151    2.88888905430177
C         0.13243769794753    2.85548227113634    2.32322453892149
C        -0.87563322633118    3.35818116521483    1.28481207780008
C        -0.41418501869215    4.70651404832494    0.73804563886571
C        -0.28960697402187    5.72663128369481    1.86734532030632
C         0.67686609898483    5.22601497550896    2.93750888059555
C         0.23168605917014    3.86952891494388    3.47670994501332
H        -3.40582409174576    1.02836441931559    3.88848933545808
H        -2.77098344121780    2.52187035201729    3.17388253617140
H        -2.46346527726678    2.14260980755501    4.86425479641870
H        -1.54331060436137   -2.08797429614589    5.11521380414790
H        -1.75517106158869   -0.62097708189455    6.06933910602982
H        -2.88528852297412   -0.99107545930941    4.76979244227806
H         1.12776270440653   -1.21489631661942    5.81318035048507
H         0.78913196056325   -2.50539043374391    4.67150718898044
H         2.25409674099304   -1.52802392145724    4.49624338900890
H         2.97080459769601   -0.14589758786509    2.93120981896695
H         2.47406431466382    1.01967807780883    1.70609784078566
H         2.77370635552053    1.55443793542625    3.36069906707218
H         1.10472345164303    2.82164738019828    1.82299320241287
H        -1.86181716911910    3.49102594096197    1.72840039994456
H        -0.95371864365288    2.63438128767805    0.47358375919621
H        -1.12720089932946    5.06362065771032   -0.00794965120022
H         0.55223594933173    4.59126853420591    0.24199792448134
H        -1.27197544080218    5.89602205123253    2.31488584151445
H         0.06120886423722    6.68089758686513    1.46934554021641
H         0.72867047520641    5.94573502496280    3.75707600528871
H         1.67736776947542    5.13914703103381    2.50749918783377
H        -0.74122171198706    3.97366027318254    3.95827623311277
H         0.94380383455333    3.51652441194934    4.22498444250365
C         6.21602284126548   -4.90662546122243    3.49016706196754
C         5.29404917881600   -4.72597154280535    2.28879300851963
C         3.98207698155878   -4.04895588759445    2.68050116512713
C         3.06103206595029   -3.83148293710925    1.48060309025314
C         1.74760194662366   -3.17380505715390    1.90231369786561
C         0.86811878417473   -2.87331773206797    0.69297396287263
N        -0.40828579307607   -2.28874619910295    1.02232910415922
C        -1.46162225038776   -2.81020601329386    0.49665560106817
C        -2.69116688183139   -2.07253121957809    0.56647329237750
C        -3.89112896468002   -2.49281356147958   -0.00189031013088
C        -4.97639107590086   -1.62824544817246   -0.00210641204111
C        -6.26490806433203   -2.08214435017768   -0.61285782835426
O        -6.41863609470544   -3.18097612237097   -1.09166936965643
O        -7.19853385351567   -1.14178953678967   -0.56138615823533
C        -8.47563358237120   -1.46264948124724   -1.11304629000251
C        -4.81286856435628   -0.35357007127246    0.54569393850969
C        -3.59346198408684   -0.01458957017908    1.09973334429842
N        -2.55969874783851   -0.85327600565123    1.14143515251029
H         7.13863856018555   -5.39999117731955    3.19286455113399
H         5.73565808640392   -5.51369376516238    4.25476565780212
H         6.47045316116752   -3.94314094065200    3.92713621739733
H         5.08264959485071   -5.70202924730813    1.84620197985091
H         5.80232697316014   -4.12390446780609    1.53205240901509
H         4.20935650637646   -3.08630490813624    3.14381764309850
H         3.47280959321381   -4.66542817767637    3.42418465026701
H         2.85851349563122   -4.79292893989812    1.00447556994442
H         3.56745098455422   -3.20039571683138    0.74759086698806
H         1.96657994453931   -2.24058417309503    2.41325185196815
H         1.21420361338381   -3.83700714706972    2.58424722720437
H         1.38041690449912   -2.13903038558711    0.06066385497502
H         0.71937696632699   -3.78525245321838    0.10558642572295
H        -1.42210426594832   -3.72745898438258   -0.08222028415310
H        -3.98299198987373   -3.47158901433666   -0.44636077080936
H        -8.91486383764524   -2.30539877801764   -0.57685376419767
H        -8.37508738349142   -1.72752000840443   -2.16664190121299
H        -9.08383992896550   -0.57037085826073   -0.99577252696378
H        -5.62463090836370    0.35416908314593    0.53788421686148
H        -3.43804844490931    0.96902224979000    1.51424340030908
Cl       -0.04215710781276    0.28519261520512   -0.27473937299342
