83
 energy: -120.188960985197 gnorm: 0.000366231338 xtb: 6.4.1 (afa7bdf)
Ir       -1.20368527576638   -0.73376265915546    0.88866117044748
C        -2.26785232669302    1.39124392801082    3.48943905860648
C        -0.97459944539659    0.71555234001592    3.14525118974917
C        -0.85291024045482   -0.75562704663079    3.02494154806335
C        -1.77761037674122   -1.61877814431194    3.84344508825413
C         0.61757373260396   -1.02883260310100    3.16122457237638
C         1.22705642392921   -2.38791720302957    3.18789912034689
C         1.26355920303641    0.15245228143385    3.28385486024927
C         2.73174487019744    0.35759112291943    3.41606465583580
C         0.28842512350872    1.24608996398988    3.25489743349390
C         0.70435593328639    2.67987781394021    3.31236542971191
C         0.28485660100074    3.41900350760424    2.03302373694133
C         0.83366290384428    4.84102872296595    2.04205054212475
C         0.33403730365885    5.59631742213170    3.27050897519459
C         0.73067215867756    4.85879891506244    4.54752432900128
C         0.17807687541503    3.43589910344662    4.54028176893079
H        -3.12269052461086    0.81107251099989    3.15902616852009
H        -2.33298096276741    2.38438411582213    3.05654100820189
H        -2.33240363326502    1.48850645715821    4.57384484002370
H        -1.65680096560300   -2.67320013437008    3.61538099786276
H        -1.50886340582024   -1.47385059367161    4.89044791497351
H        -2.81854753384012   -1.33665146434243    3.72469558601887
H         0.48109785962740   -3.15097146608494    3.37805230935656
H         1.70999206961661   -2.60755017732284    2.23644650039667
H         1.98429167041023   -2.44077628462153    3.96717901252603
H         3.24557695411213   -0.59519697178640    3.49603929095686
H         3.11603952944889    0.87472028669688    2.53617317373966
H         2.96556283611611    0.95902511708550    4.29381409801711
H         1.79683007997041    2.71224790220620    3.35882424133686
H        -0.80302536648848    3.45451519199330    1.96169974004789
H         0.65878766939825    2.87947994139485    1.15968102653639
H         0.52833629805720    5.35781171902383    1.12880701428919
H         1.92621127198524    4.81283730414603    2.05111513678693
H        -0.75431113747441    5.68224555136173    3.22337592577121
H         0.75006297861047    6.60605899083232    3.28090165265862
H         0.35190500210823    5.39712095685085    5.41895896778602
H         1.82055967616978    4.83060679588286    4.62320043443831
H        -0.90954631775479    3.47770315710166    4.51957270909099
H         0.48272089666909    2.91248104838850    5.44854828502583
C        -1.73105448056812    7.49144895201921   -0.34176347234372
O        -2.22950748875178    6.19063076561948   -0.03765240262798
C        -1.74493819145464    5.14674560614348   -0.70876601922736
O        -0.89510435007119    5.22025249156549   -1.56908717558069
C        -2.37126199276036    3.86815503349718   -0.27733062561407
C        -1.88557762676870    2.67859159611075   -0.81376165090169
C        -2.43685386986563    1.46827811454740   -0.43666131921354
C        -3.48807652738665    1.43027006811204    0.48738766961883
C        -4.05959199986857    0.13081796930114    0.86476742173511
C        -5.43037529768535   -0.06449877095237    0.99404305007588
C        -5.92822680438599   -1.33894780941339    1.24071212382600
C        -5.05064694123431   -2.40609827480138    1.28007939600417
C        -3.68482496070085   -2.15537543162653    1.14755190828447
C        -2.66375998979319   -3.13989009675143    1.02046288263156
N        -1.45247954633881   -2.70488379123647    0.77829437563714
C        -0.41696145386556   -3.62607740695000    0.57647976232613
C        -0.34526245322906   -4.80403383268596    1.32812940411454
C         0.67587523324224   -5.70455939955381    1.11055023590788
C         1.64652270896025   -5.47330518941632    0.13824744590189
C         2.74368826397546   -6.45537248758962   -0.10471694606669
C         1.56084136487362   -4.30297458464793   -0.61451636542895
C         0.55242132329854   -3.38789745342117   -0.40054732096979
N        -3.19846717983552   -0.89047747795632    1.02034492164573
C        -3.98751189437244    2.62825680771594    1.00000063362987
C        -3.43562263116203    3.83646433510717    0.62249774706501
H        -1.32425909358010    7.91638123868807    0.57511693065547
H        -2.56283083670681    8.09783214164865   -0.69872563395917
H        -0.95578393278973    7.42734136479203   -1.10677203281091
H        -1.07877847586101    2.72394548060262   -1.52941159729803
H        -2.12428711330241    0.56568190221733   -0.95789316248790
H        -6.09600680093893    0.77468227518658    0.87521303903922
H        -6.98862247868363   -1.49397830189265    1.35951475516335
H        -5.39834395214647   -3.41863490542705    1.39916312960763
H        -2.89239956801233   -4.19714309443030    1.02746147351488
H        -1.06760731835312   -4.99363633252591    2.10682651362886
H         0.72764590855024   -6.60046278960317    1.71013128999573
H         3.67935601719228   -5.94504681576329   -0.32147866696398
H         2.49786669603149   -7.07374711739604   -0.96843537448460
H         2.88275962011069   -7.10984333994440    0.75131448053516
H         2.29921754634025   -4.10727911830353   -1.37727774828801
H         0.50221297385408   -2.48587211392258   -0.98892233078465
H        -4.79457549938703    2.61096021468102    1.71568804767741
H        -3.81881927795406    4.76097460068688    1.02340438648025
Cl        0.85032296229789   -0.11472144184012    0.12737030686265
