84
 energy: -128.841751181892 gnorm: 0.000911611660 xtb: 6.4.1 (afa7bdf)
Ir       -0.70037550782235   -0.22485000623450    1.66884561536322
C        -1.77710444395302    1.33162428610857    4.51177602232531
C        -0.65483577297513    0.75397166101940    3.72286375344064
C        -0.24185926155266   -0.61681195389234    3.80575369919501
C         0.98515719208609   -0.75571039985680    3.06487852608751
C         1.90278254934148   -1.92777914246036    3.11736241160864
C         1.27591841738271    0.49791042803078    2.45495705792311
C         0.25186851784633    1.44768637241982    2.85893629888138
C         0.39758253034424    2.89767370567500    2.69817784381186
C         0.28125077856041    3.74028189787603    3.80384512135267
C         0.55135017925687    5.08820186317927    3.69076154520732
C         0.95575809870854    5.64069458130811    2.47654415005941
C         1.30556697267931    7.06465143797960    2.38350367749777
C         2.38297098593777    7.47990313252010    1.60180202570937
C         2.72646182502106    8.81726383770378    1.52666748208911
C         1.99747040986793    9.76447321934642    2.22775397376949
C         0.92277025547642    9.36399920353824    3.00554078149432
C         0.58119604127605    8.02599479763886    3.08718580433631
C         1.04934139247150    4.80000758299320    1.36875614990246
C         0.77160288764413    3.45222678961549    1.47466538323085
C         2.53267692192302    0.83206675778502    1.72735472910784
C        -0.81898260267835   -1.63743933385908    4.72767162117900
H        -1.48524511512485    1.37232279140917    5.56209575149346
H        -2.66593481007447    0.70748669740809    4.44437529986726
H        -2.01677293159940    2.33430869198497    4.17257347603924
H         2.59908384114293   -1.78624648244614    3.94525418726721
H         2.47596052896214   -2.02227995924060    2.19962717536183
H         1.36072424239417   -2.85360741908462    3.28666592657211
H         0.02847565171298    3.33379595622323    4.76997186738784
H         0.48649330036554    5.71732693025626    4.56581589935309
H         2.96885756802544    6.74732957120141    1.06663151178797
H         3.56780803209028    9.12241153769070    0.92158152728585
H         2.26426050055225   10.80942253389980    2.16810665835357
H         0.34342322403158   10.09756819582330    3.54702454600740
H        -0.27798087971010    7.73016025247051    3.67050831323573
H         1.33222133084689    5.21096132561809    0.41125430589459
H         0.83145002721094    2.82082619237171    0.60206308299132
H         2.40585735744067    0.71857393864548    0.65156739541012
H         2.80737053172261    1.86708760604617    1.91912030961024
H         3.33941976652172    0.17806773906936    2.04616740738117
H        -1.88840212474516   -1.49353079501831    4.85576810921859
H        -0.63680423862247   -2.64428916103032    4.36130976092240
H        -0.34561312504994   -1.54407102677997    5.70568307347433
C        -1.26837086852634    8.23685869353780   -0.02572258202579
O        -1.51894956310013    6.84943396454259    0.16856916612573
C        -2.11600401967239    6.49036549641961    1.30679676772507
O        -2.43218341064082    7.27321843189576    2.17543704207931
C        -2.39491049144670    5.03323637315344    1.36244402302308
C        -1.92116586321100    4.15759112506330    0.39084899327013
C        -2.25352922897057    2.81739227460353    0.44255074788846
C        -3.08515543730302    2.33819441075980    1.45136488807938
C        -3.60408426345123    0.96263473180725    1.36366244872355
C        -4.99286183648897    0.81192439101632    1.29904926762205
C        -5.55231981520036   -0.42708836276644    1.04306681690894
C        -4.70279808544850   -1.50066561301601    0.83968277197154
C        -3.33118028851059   -1.30301358429489    0.97067313400911
C        -2.37925533618997   -2.36198285437912    0.79759520513801
N        -1.13301057567284   -2.09421759470718    1.00176611291011
C        -0.17505117740163   -3.10698809485246    0.85475317945176
C        -0.38449114133368   -4.36341690394858    1.42706948146648
C         0.56203454371956   -5.35779781312029    1.26645332344230
C         1.70993999902168   -5.11739987081023    0.52609754291301
C         1.91847895396432   -3.86911296253589   -0.04118727658451
C         0.99030365101205   -2.85928545546817    0.13065883142503
N        -2.78647955937111   -0.09159085394039    1.25779676574751
C        -3.56291279139198    3.21879604975327    2.42381790963324
C        -3.19979167468421    4.54935531341020    2.39217902885476
H        -2.17043807586701    8.81601923578932    0.17985991060347
H        -0.96901074121130    8.34512989326897   -1.06459657716652
H        -0.47232321977731    8.57297862617261    0.64136275045677
H        -1.31189605293212    4.53402931358726   -0.41363904079247
H        -1.90204295641933    2.14766046177493   -0.32499360529334
H        -5.61226463285970    1.68606627501970    1.41960061216842
H        -6.62228055561172   -0.54587290995589    0.98038010106426
H        -5.07970231473419   -2.48007248009693    0.59442496352950
H        -2.70514076099499   -3.34224194105972    0.46766871991436
H        -1.27123681004869   -4.54307847483416    2.01628139415840
H         0.40274042057211   -6.32404790705159    1.71949290387636
H         2.44149715539618   -5.89946661536161    0.39540526116233
H         2.80945338437069   -3.67995928137803   -0.61955787543601
H         1.13383334158083   -1.88868795803103   -0.31680815262373
H        -4.21999821314131    2.86021866352070    3.20169685494892
H        -3.55470277022029    5.24126191596056    3.14056143176111
Cl       -0.21279796253857    0.33224705593481   -0.59628750106044
