71
 energy: -115.995775369463 gnorm: 0.000458152183 xtb: 6.4.1 (afa7bdf)
Ir       -0.77672467665892   -1.33590848371099    1.16550553498222
C        -1.92964630060639    0.66492419815786    3.70592094253223
C        -0.80680957021499   -0.05121106339502    3.03894540796138
C        -0.44877090796940   -1.40904765098201    3.37444864252651
C        -1.10595834788282   -2.23127633395955    4.42787846941108
C         0.81016214132468   -1.70812680623739    2.74870809164084
C         1.65366755297727   -2.89608616504105    3.05185116559298
C         1.17032592357753   -0.58945992048807    1.94188160418632
C         2.46168713674122   -0.40486232378921    1.22328505480364
C         0.16164982705161    0.45107795707360    2.12302592016968
C         0.36122835693022    1.86352154682263    1.64277351685300
C        -0.81259092234080    2.45584038497868    0.85481387644237
C        -0.43572313839488    3.84245456424485    0.33947933027973
C        -0.07020656556770    4.76329464090631    1.50115386792286
C         1.07734540511468    4.17049227153987    2.31473478280957
C         0.71432530956181    2.77922535793522    2.82689946393071
H        -2.82873144411794    0.05274018162020    3.73209294831398
H        -2.15817881202565    1.61138235098177    3.22968263173103
H        -1.64054346608435    0.86356681739765    4.73877703908961
H        -0.91230059078847   -3.28922951992120    4.27715313599913
H        -0.70203976695051   -1.94939496449304    5.40104508713578
H        -2.17911496046760   -2.06538328796475    4.44960560607683
H         1.04932079856869   -3.78571544863085    3.20656034527870
H         2.36707064931109   -3.09065881994580    2.25752738792562
H         2.20790285954173   -2.69786837401409    3.96995188050713
H         2.99704379691220   -1.34443635589141    1.12991063760987
H         2.29752804453434    0.00246255281371    0.22785462395864
H         3.08433967600167    0.29602858333876    1.77952736439227
H         1.21821487697035    1.85663328968657    0.96306709599397
H        -1.69777429589084    2.55463277115647    1.48404270454958
H        -1.04969976033293    1.80056844443182    0.01513012177339
H        -1.27156648483025    4.26559373610765   -0.22105589362755
H         0.41296014771386    3.76144888933413   -0.34320382758688
H        -0.94203118740408    4.89976425732848    2.14547524222749
H         0.21479919145587    5.74542066667371    1.11932366793117
H         1.30797674636075    4.82178095040641    3.16005680413503
H         1.96996456581786    4.11002016470868    1.68810908847754
H        -0.13542580168777    2.85642872089637    3.50510140593654
H         1.55369511581562    2.35820769807672    3.38303162157483
C         4.41534029173352   -5.41684160782570   -0.57959515163720
O         3.36405527739325   -4.47056203580243   -0.47677549066769
C         2.15913039135595   -4.87295632079911   -0.04195989232874
C         1.85545323724644   -6.16843738086395    0.37863790047558
C         0.56896907239834   -6.44036935190439    0.80966870211166
F         0.28554178982958   -7.69221733264129    1.22221128854928
C        -0.43674017561880   -5.49570631575439    0.83896530470442
C        -0.11794868420369   -4.19997864830162    0.42463074922648
N        -1.09521222663137   -3.19391723729576    0.43067401740277
C        -2.25583006865743   -3.42884612292645   -0.10297236523903
C        -3.20557482935007   -2.36116262359497   -0.07880024611377
C        -4.45657104945875   -2.39710831228768   -0.70398647345326
C        -5.26612373813181   -1.28251394333926   -0.65430571822367
C        -4.79304870935576   -0.15402863182141    0.02404820877558
C        -5.64245999512686    1.08865566765378    0.08438261400500
F        -6.89257456050990    0.82295948609554    0.49544544326111
F        -5.15026345299340    2.01219712780836    0.91917766336602
F        -5.75607606834612    1.67558550945643   -1.11877290689095
C        -3.54474409679510   -0.18147957749079    0.62257941476162
N        -2.76793373973555   -1.25829031003221    0.58348911260662
C         1.16424072789261   -3.89005008370986   -0.00309128816684
H         5.26343336880070   -4.86388655063023   -0.97761231872602
H         4.67383217935875   -5.82812974908459    0.39933318277397
H         4.15418622757657   -6.22600648402075   -1.26566406255386
H         2.58240086993422   -6.96281584540801    0.38064668346200
H        -1.41790399530004   -5.75498644885914    1.20019850585737
H        -2.48122740610292   -4.37057890582512   -0.58888205549083
H        -4.76926948493448   -3.28751105906036   -1.22528815392495
H        -6.23757241854964   -1.27075677209418   -1.12387754037286
H        -3.16224470055144    0.68359712358451    1.14356709152833
H         1.39284369990533   -2.89677868994891   -0.35560324599789
Cl       -0.36075185516724   -0.66330305138673   -1.08106036453215
