81
 energy: -128.628450048253 gnorm: 0.000588523937 xtb: 6.4.1 (afa7bdf)
Ir       -0.81115284677324   -0.00181966039275    1.66035725030484
C        -2.11916797575385    2.17877705267502    4.07432768682287
C        -1.03248773123676    1.31227015112724    3.53216008833727
C        -0.93320403638736   -0.09215521503735    3.87729055359112
C        -1.89176732290928   -0.81545738306682    4.76014199219614
C         0.37101716667590   -0.54956586417365    3.50965802920879
C         0.98421405330871   -1.83394722299847    3.93942026042625
C         1.01574847910158    0.50669163246062    2.79426794789824
C         2.44191733558891    0.51434073238434    2.35668509912343
C         0.16024745229558    1.68473910081127    2.85418082137582
C         0.66977997848863    3.05582221804245    2.50383679408628
C        -0.23142216587022    3.90308192323034    1.60001751661836
C         0.46721292454710    5.21918470383011    1.26690341477257
C         0.79317930872815    5.99083688360341    2.54327526166522
C         1.66634667377392    5.14698205423621    3.46795703552613
C         0.97965093150572    3.82527170445911    3.80065207059698
H        -3.10079642735878    1.75370136473049    3.87669129437468
H        -2.08350125398186    3.18340345242580    3.67035073233956
H        -1.99564451347795    2.23672346378724    5.15664536789025
H        -1.80964436273530   -1.89102116795716    4.63219403197260
H        -1.66350354416361   -0.58180669821451    5.80079313282343
H        -2.91608978152217   -0.51219054680663    4.56270158419100
H         0.25052224633963   -2.63357984113309    3.99547117958505
H         1.78968323953832   -2.14198482265484    3.27912441745590
H         1.40003195496071   -1.69404863711953    4.93812203855727
H         2.84028166272657   -0.49422665859111    2.30680594079957
H         2.55210196003804    0.97426674634906    1.37756408283712
H         3.03675102878531    1.08218401338894    3.07232784554062
H         1.61269264799950    2.92305878727743    1.96551454894832
H        -1.17604613553364    4.13059951455189    2.09449833057792
H        -0.43862917607164    3.35588085745220    0.67942752371541
H        -0.17396991304091    5.82223912792945    0.62095006417059
H         1.38966986447073    5.01594406208049    0.71856630647234
H        -0.13414212049758    6.25390770465435    3.05803853989470
H         1.30786220441762    6.92072060418601    2.29392633629053
H         1.86910375677559    5.69478866265692    4.39020141080566
H         2.62412041643571    4.95123074727316    2.98071935829391
H         0.05563738456739    4.02485518371066    4.34355065436124
H         1.62381878143188    3.22271230270611    4.44323683860625
C        -7.85645522417659    5.68123288226242    0.52745955910521
C        -6.54397575473234    4.95597070601864    0.77842865660503
O        -6.74007147430534    3.58579816887880    0.44045177448409
C        -5.74002455928712    2.70642992091234    0.55215032031010
C        -4.43365985157011    3.02383744656493    0.99717503593910
C        -3.47764701890854    2.05421329605479    1.10212113536404
C        -3.74677268357404    0.71550041263099    0.76062840368612
N        -2.78651368484663   -0.22564129389622    0.87511127494271
C        -3.02314576060766   -1.45516151514797    0.39441723245260
C        -1.89931386918236   -2.33406726764481    0.40002973907812
N        -0.76658092915430   -1.87680927908831    0.83311465347984
C         0.33937285642224   -2.73850841818335    0.88561105438501
C         0.17758838501994   -3.99530792804934    1.46869231797541
C         1.24384860171967   -4.87094357840553    1.57721668538314
C         1.02280236098008   -6.19356073766600    2.24674382987135
F        -0.13705599584513   -6.77162844277955    1.87704794450134
F         1.99020279756516   -7.08682217729796    2.00074582244427
F         0.95150522211820   -6.07759058927736    3.59330190036499
C         2.50202727683975   -4.50408638347021    1.10308027044402
C         2.66575968864254   -3.27225872273115    0.51456411614536
C         1.60424775978758   -2.36469175856026    0.37841911619300
O         1.87154262263511   -1.22649438338569   -0.24044562306973
C        -4.27824080968092   -1.83976221882690   -0.12595432687658
C        -5.29320774851964   -0.93040912497784   -0.16367488809834
C        -5.04887229524122    0.39777170839908    0.25868327457114
C        -6.01926335592476    1.39800675885572    0.18423950543380
H        -8.64182417656958    5.26193364061491    1.14993221707176
H        -8.14648972404123    5.57796162625461   -0.51448260298579
H        -7.74167023693936    6.73540696369129    0.76109694491241
H        -5.75081446518162    5.38295746985450    0.15296852395194
H        -6.25974157895901    5.04002787588222    1.83437133233657
H        -4.18233960703337    4.04159079456252    1.24755562306135
H        -2.47421222269374    2.30595408616742    1.40323381371650
H        -1.98525711941056   -3.33621109309198   -0.00493057115262
H        -0.78888089339287   -4.27574890744504    1.86027357714773
H         3.33460265013969   -5.18320750975570    1.19338477041045
H         3.62450127482821   -2.96878809907055    0.12656875204779
H         1.10319129960091   -0.61910153875436   -0.37144141053260
H        -4.40868172451860   -2.84943178525565   -0.47929097167009
H        -6.27152950193441   -1.19587847412156   -0.53208502467879
H        -7.00510716742841    1.16241198458391   -0.18329212978444
Cl       -0.32087850785473    0.83355545084759   -0.53410001200759
