80
 energy: -119.000512146253 gnorm: 0.000984214609 xtb: 6.4.1 (afa7bdf)
Ir       -1.18449899229471   -0.80959951545632    1.12196028776211
C        -2.21107813404468    1.54234010457348    3.51049260781877
C        -1.18788697640852    0.62054827207464    2.93496563662214
C        -1.10344637985324   -0.76955826263247    3.33664937626088
C        -1.99988797694942   -1.41125388335265    4.34194771072828
C         0.15327248106901   -1.28760020597349    2.88231148603675
C         0.76569688860875   -2.57203556006150    3.32121377147737
C         0.76081165493062   -0.28889429080695    2.06615661913694
C         2.13925584681205   -0.34664952990988    1.49931622487655
C        -0.05331762497587    0.91865911068641    2.13768852783462
C         0.47360008649013    2.25513192222218    1.68972104528143
C        -0.46169064134123    3.09733453193088    0.81712794564817
C         0.25576828918048    4.37054794129272    0.37513378330045
C         0.70386292905673    5.18298045412821    1.58750413410446
C         1.61241569423043    4.34655270222421    2.48456214943904
C         0.90733200976228    3.06628388233539    2.92353012637786
H        -3.21447220590824    1.13723496767480    3.39810298787398
H        -2.17903290224870    2.52512201473898    3.05591503692448
H        -2.01308718615663    1.64760280485271    4.57796552376882
H        -1.94473161601026   -2.49434050408489    4.28346822916081
H        -1.68953317789202   -1.10929952927895    5.34300457165803
H        -3.03184575803014   -1.10156862741053    4.20118183922899
H         0.01532473740256   -3.34228086679481    3.47801278038753
H         1.49678638587094   -2.93416205824070    2.60435111740304
H         1.27637265566059   -2.40049275210222    4.26962215512516
H         2.50343817148716   -1.36817132899078    1.44704833684317
H         2.17158529462598    0.07079449711069    0.49512488024030
H         2.81820132814877    0.22878507085846    2.12930872819859
H         1.36762719678356    2.06423659104864    1.08931846775853
H        -1.35716768201711    3.38184105687188    1.37027092521488
H        -0.75504956694076    2.51798367550825   -0.05980296678555
H        -0.40985543952515    4.96999030424664   -0.24937711353810
H         1.12686633456573    4.10815299558194   -0.22970774264029
H        -0.17195680152437    5.50491792032732    2.15622820365739
H         1.23255499546353    6.07949758652556    1.25799997640026
H         1.90135173095141    4.92524850896797    3.36450087123904
H         2.52448009841425    4.09380731394003    1.93876510732060
H         0.03442289121666    3.32193562835727    3.52463552789381
H         1.57797427917520    2.46705331096153    3.54238691691168
C        -7.91252598641561    5.25877505049727    0.19677797293723
C        -6.62730444779303    4.46095436206893    0.35071988237703
O        -6.94876722622894    3.08678323174106    0.15806257456218
C        -5.99866865969656    2.14851183781827    0.24674820971294
C        -4.63654249091967    2.40642276938461    0.53071881501081
C        -3.73840707902028    1.38166028817606    0.62891023553328
C        -4.12493866782736    0.04380757021308    0.43157216841415
N        -3.21749870214607   -0.95190448885191    0.53092235132874
C        -3.57900144313378   -2.19431473462191    0.17361721991488
C        -2.50888369086771   -3.13611755402246    0.14024293617261
N        -1.32716995127832   -2.70839867690863    0.46093045038619
C        -0.23512433440826   -3.58484998656103    0.40092984073329
C        -0.33233924608752   -4.88077533626151    0.91468777416959
C         0.75048814177689   -5.73781089473357    0.84072484540085
C         1.93285516366062   -5.32473676267260    0.25013148818896
C         2.03527585757248   -4.03078980358550   -0.25785313617267
C         3.29723496212200   -3.54815029592617   -0.88183624549251
O         3.53743804749389   -2.38283259889818   -1.10038331942564
O         4.14460777677731   -4.53012764212048   -1.16780037643348
C         0.95688073415449   -3.15765299086911   -0.17472306892462
C        -4.90319571514382   -2.52776577958502   -0.18686090967789
C        -5.85871014153290   -1.55617888810167   -0.19489642183004
C        -5.48845483437624   -0.21968377436805    0.08897811465054
C        -6.39703368144953    0.83823422163183    0.02584593512365
H        -8.33563519880786    5.09881473181353   -0.79099495941211
H        -7.70321438611034    6.31638984946616    0.32629193759263
H        -8.63944953741894    4.94597753915020    0.94114345543465
H        -6.20825287578711    4.60746120700469    1.35377200643909
H        -5.89234773664099    4.77837280564990   -0.39931369349870
H        -4.29515072624410    3.42012019740673    0.66141729520255
H        -2.69474313259848    1.58096018912249    0.80556053344297
H        -2.67201115228935   -4.14889718297298   -0.20982859847676
H        -1.24662891331084   -5.20042824699024    1.39100492724936
H         0.67261098594151   -6.73437481634175    1.24573085255572
H         2.77791130218957   -5.99051859688915    0.18626546424198
H         4.96719771708832   -4.20079798155559   -1.57143506386192
H         1.03763015661798   -2.16344087185279   -0.58630713008964
H        -5.13123503484094   -3.54955806191369   -0.44198601759256
H        -6.88566303482414   -1.77850732835334   -0.43901460308239
H        -7.42888958744297    0.64512226281943   -0.21999370377842
Cl       -0.76830714870546   -0.10708207283988   -1.12010683201539
