65
 energy: -101.810216080810 gnorm: 0.000415772737 xtb: 6.4.1 (afa7bdf)
Ir       -0.51526669287696   -1.47207584992214    0.90431304118211
C        -1.54842529564753    1.33667333207532    2.59282442457559
C        -0.46414298731308    0.39579045353953    2.18512888283034
C        -0.02271854938074   -0.74747970812684    2.95424486141801
C        -0.56272218615168   -1.19221763598629    4.26984477561119
C         1.19723317907246   -1.22683611661240    2.37171865783155
C         2.09272862067182   -2.24106942949107    2.99176814987036
C         1.44021799881849   -0.48103402772447    1.18205322599113
C         2.66414451586284   -0.52877258539023    0.33039035632966
C         0.42402180326563    0.55557915786880    1.09130024860357
C         0.46566758646221    1.67666830524520    0.10959157394255
H        -1.13561109013500    2.06736021183757    3.28972750810566
H        -2.35921998183055    0.81502065473011    3.09507878897931
H        -1.94615707670524    1.87812796107243    1.73837086387802
H        -1.53952212098566   -0.76043313538462    4.46331165870605
H        -0.64754793684432   -2.27663888542755    4.29712087242333
H         0.11708942345473   -0.88475622832373    5.06460745667760
H         1.51428350232415   -2.98805876612952    3.52793662761247
H         2.71236753796158   -2.73589683775955    2.24908808525144
H         2.74686925772301   -1.74065909772705    3.70671624273304
H         2.40717209319322   -0.38238664631256   -0.71609910447947
H         3.17851590428741   -1.47915264735620    0.43860336989749
H         3.34324164288323    0.27093392041520    0.62732855817682
H        -0.42675759154882    2.29212785160240    0.16826505667902
H         0.55715041117815    1.29373229505573   -0.90502728690413
H         1.33606456502089    2.30026989436293    0.31355839089676
C        -0.80038750103509   -6.87133272935219    4.46869162547732
O        -0.00089691255773   -6.60585353263798    3.31572860631504
C        -0.01542191177977   -5.37129887097089    2.83220761666858
O        -0.68300814124748   -4.46903176161745    3.29148235885259
C         0.90218108161193   -5.21170310974146    1.67124158266382
C         2.05759428261319   -5.96985388671688    1.59268497868010
C         2.98833005574918   -5.76684173027818    0.56776163883202
O         4.06092305708767   -6.57836585952781    0.58007151039116
C         5.03154911241019   -6.46103064372312   -0.44608107576107
C         2.75303870983332   -4.75338491025732   -0.36510006099642
C         1.60509348347991   -3.98896968842978   -0.28686672708555
C         0.65983302193652   -4.21384222754332    0.70896310392977
N        -0.52403001486656   -3.46637234765910    0.71224907516824
C        -1.66693408750854   -4.05456867771186    0.57733362793296
C        -2.82914763847320   -3.21359756246261    0.59012100942531
C        -4.12356435207696   -3.67437885627065    0.37279740994336
C        -5.17744846785445   -2.75876606382116    0.36262541430490
O        -6.45952537991925   -3.05265537205882    0.17528610009281
C        -6.84787601474666   -4.40303268565280   -0.03593903910415
C        -4.85680483900611   -1.40240734497114    0.56522077877094
C        -3.55018386243348   -1.03282302812612    0.77081065675772
N        -2.54437336255143   -1.90791492138741    0.80132142339124
H        -0.93778108832070   -7.94853943120371    4.50005849257834
H        -0.27976888277148   -6.52935912573258    5.36450280240711
H        -1.75857355597072   -6.35564405223845    4.39159022979614
H         2.25978473058064   -6.72877583500240    2.33034626444778
H         5.51986143412080   -5.48376200884303   -0.42121492900121
H         4.58845858511726   -6.63142342243069   -1.43039151063219
H         5.76501428619114   -7.23733264566298   -0.23893619876891
H         3.45442192845431   -4.55807674218305   -1.15951394538824
H         1.40938836566401   -3.22040495170016   -1.01889666682852
H        -1.74456944211248   -5.12551172834018    0.42781377969764
H        -4.27940901838254   -4.72661533825963    0.20424145236163
H        -7.92855981006709   -4.37615440720495   -0.15568290416136
H        -6.59003787329233   -5.02342602961456    0.82500594931943
H        -6.38988596593828   -4.80637971127739   -0.94156014379056
H        -5.64615222446457   -0.66990556936583    0.55417815830674
H        -3.29335170798311    0.00542921228448    0.91387502180767
Cl       -0.62836861224140   -1.36191384243002   -1.48113175361641
