72
 energy: -121.988589630900 gnorm: 0.000718915438 xtb: 6.4.1 (afa7bdf)
Ir       -0.38441891964676   -0.47124377179306    1.60451238188020
C        -1.57656978346989    1.91471547456068    3.76804285885455
C        -0.42023992125348    1.15221901108870    3.21794306464903
C         0.09234411647320   -0.08111662403074    3.75482877969892
C        -0.40693248391744   -0.77738327650170    4.97324022978430
C         1.32778645365775   -0.37454585450716    3.08413501173721
C         2.29871331607834   -1.41880247383725    3.51110479353915
C         1.51159687924710    0.58303618133754    2.04723312716025
C         2.74865207788113    0.76387369223929    1.23426587073992
C         0.42599517107044    1.55478005617679    2.14912119874800
C         0.40655531404819    2.86820262015431    1.48323667859148
C         0.42075002867800    4.01702767460280    2.27377846787885
C         0.44160053126740    5.25546490700514    1.66170764662415
F         0.45758936919040    6.36048806400324    2.43707701646943
C         0.44666058552823    5.40786253421987    0.28678806911033
C         0.43217548948556    4.24881574757032   -0.46938439833799
F         0.43433656760463    4.35930702780595   -1.81418577515865
C         0.41525166826172    2.98819865603241    0.09609729789066
H        -1.90558780666431    2.68238437744126    3.07229841818558
H        -1.27154873893635    2.40061681670469    4.69555865060008
H        -2.40943728405149    1.25586957539903    4.00353277443192
H        -0.46083165587791   -1.85090987189629    4.80582149124368
H         0.27838055828496   -0.59653731283534    5.80115050562943
H        -1.39218183095079   -0.41837398705056    5.25332873821547
H         2.95196823763675   -0.99672437499274    4.27562781245383
H         1.78270374195707   -2.27314848001557    3.94033773572564
H         2.91615495067834   -1.75293006958350    2.68226391100702
H         3.20710253237185   -0.19523409003494    1.00747535854296
H         2.53308271602444    1.28254508193058    0.30442688041300
H         3.46433890066258    1.36206598441178    1.80069791237938
H         0.43594775957849    3.95740771946329    3.34958203230634
H         0.46171905617240    6.38165922051582   -0.17305707899593
H         0.37235780191459    2.11628641325775   -0.53759582296995
C        -0.83750733957901   -6.37392375650095    4.45412987801838
O         0.00080035755471   -5.93878518687344    3.38239148760604
C         0.01832815607071   -4.64527726972816    3.09864549149425
O        -0.65069542295127   -3.81095501930136    3.66950926982523
C         0.97930344663011   -4.32517083125393    2.00593087418112
C         2.13475148689960   -5.07347030264021    1.86721702374938
C         3.10975848274908   -4.73445725882607    0.92136553666833
O         4.18005547641326   -5.54289235040036    0.86632419910228
C         5.21370753946611   -5.26465758862864   -0.06312848960701
C         2.91340391902956   -3.59920761098789    0.12999224011890
C         1.76581737947317   -2.84402660916117    0.27007080926015
C         0.77979421575670   -3.19723461373832    1.18744236489491
N        -0.40059173130028   -2.44517989208219    1.24043314385673
C        -1.54353616801806   -3.00477400049010    1.01895598085697
C        -2.69838942523615   -2.15281617566417    1.06174951992251
C        -3.98859675105351   -2.57682140860939    0.76727917248797
C        -5.03155163536810   -1.64608740759337    0.78779961489875
O        -6.30649547036480   -1.90631875737253    0.53432720679337
C        -6.70306845483860   -3.22932172829131    0.19758751440181
C        -4.70009893228100   -0.31234707827440    1.09797890308071
C        -3.39720161040194    0.02211477154182    1.37483793165926
N        -2.40574604045123   -0.86992100623199    1.37703588719561
H        -1.07450063412855   -7.41521026941459    4.25277066033144
H        -0.29724075686295   -6.28527756150805    5.39804087661846
H        -1.74224544670533   -5.76602666516934    4.49716418019586
H         2.30453976356927   -5.93108341549029    2.49691336039974
H         5.67921671724771   -4.29737326100022    0.14136257850158
H         4.84010592168254   -5.28927335627629   -1.08974660943567
H         5.94704124558204   -6.05621186952693    0.07490683682597
H         3.64414345878884   -3.30284646871681   -0.60430320435034
H         1.60040471695813   -1.98265764280359   -0.35911937976492
H        -1.62463142863905   -4.05643352150726    0.76938543342889
H        -4.15210737218797   -3.61188330266473    0.51837606979596
H        -7.77838090748716   -3.17663780376716    0.04317814800887
H        -6.48328862465424   -3.92329755675225    1.01125104199734
H        -6.21756379303814   -3.56037789661236   -0.72256775203155
H        -5.47810293105330    0.43244161363596    1.11032659389757
H        -3.13126838925772    1.04376103658629    1.59946007435000
Cl       -0.43404241694788   -0.23885962676854   -0.77183810828127
