74
 energy: -109.383583004110 gnorm: 0.000376884796 xtb: 6.4.1 (afa7bdf)
Ir       -0.63754282593885   -1.28721371000128    1.38804489850134
C        -2.44199484011793    0.73733833784470    3.48002527186299
C        -1.15378477981755    0.08227153290400    3.10906010568371
C        -0.77117807162440   -1.21358907053375    3.61602876924559
C        -1.58317100780848   -2.01932080180546    4.57412912952833
C         0.62365000101598   -1.41319560675971    3.31766456214299
C         1.51954580393053   -2.44306709001624    3.91520223230694
C         1.05269457876165   -0.32640267193989    2.51498440729282
C         2.45523648815148   -0.07775470933609    2.07577674363769
C        -0.05071405092610    0.61642321118351    2.37915371873167
C         0.14990647195195    2.00803483744703    1.84129729700252
C        -0.86715973615748    2.45439115260620    0.78633821334749
C        -0.48393954498328    3.83226371763883    0.25279314553907
C        -0.43161147804435    4.85024547229029    1.38955085208255
C         0.55650318969184    4.40359471166167    2.46395474081358
C         0.18804111175822    3.02153439249445    2.99679811093968
H        -3.28709877173561    0.07144967968975    3.31742668801080
H        -2.60546840457974    1.65826110986783    2.93250400024608
H        -2.41005978676679    0.97327917575303    4.54448440160449
H        -1.30048790191926   -3.06766309512321    4.54955167926150
H        -1.41818495408006   -1.64533314017668    5.58529880995770
H        -2.64361404386970   -1.93947088115744    4.35339812560894
H         0.95440648467890   -3.18014599366781    4.47560367710259
H         2.11010669897119   -2.94931988111397    3.15474476226456
H         2.20779529223935   -1.94678562937924    4.59990555870722
H         3.06362777063576   -0.96851561237970    2.20048654817017
H         2.48599862953325    0.21681564562000    1.02861198882837
H         2.88660735296294    0.72788971978665    2.67041099562800
H         1.12902466050793    2.02490138300921    1.35347861412514
H        -1.86723753312037    2.52060617976468    1.21572170782331
H        -0.87883301359274    1.72949564522663   -0.02946590646325
H        -1.20948386974352    4.15083094758107   -0.49837460168467
H         0.49273646782662    3.77811738002401   -0.23322975444685
H        -1.42561650001665    4.95533301272017    1.83092057999689
H        -0.13794736098532    5.82702612996207    1.00007152227412
H         0.56226131264686    5.12310145336591    3.28534646507625
H         1.56272138191067    4.37624351775418    2.03932061251390
H        -0.78678180631183    3.07082840838393    3.48246855857174
H         0.91940228371574    2.70416644427351    3.74257349608662
C         1.69507387269185   -2.48639936307407   -3.63371839566023
O         1.92397006868459   -3.12120042237741   -2.37856756046426
C         0.85669684891420   -3.57294927218668   -1.73650072966028
O        -0.27043657148016   -3.54318195962914   -2.18421847877054
C         1.22182381278433   -4.21120818610385   -0.43657512166762
C         2.36728997725437   -4.98261263492830   -0.36483673914066
C         2.71121311640048   -5.66758005858168    0.80638203673538
O         3.83822278179811   -6.40189672075632    0.74966847718517
C         4.24765382567217   -7.12632615517753    1.89702483273834
C         1.87930653204749   -5.55447812369983    1.92109562381511
C         0.75891725466941   -4.74660213237814    1.86813981064145
C         0.41484269990698   -4.06689889606449    0.70657257653951
N        -0.70332581589367   -3.21622370623958    0.68160389433071
C        -1.72177421323102   -3.53353152880575   -0.04739178767651
C        -2.73520489086608   -2.53253150653294   -0.21096254311865
C        -3.87769498526602   -2.69623026311975   -0.99426859100776
C        -4.74885778112214   -1.63390485539001   -1.14093022883196
C        -4.44628888415079   -0.43485433548411   -0.50394569970734
C        -3.29771694940548   -0.34535794441004    0.26170330606787
N        -2.45921481752983   -1.36686276104174    0.42293246786591
H         1.12111692683634   -3.14173330936996   -4.29117155847564
H         2.67652138336223   -2.27822080658576   -4.04955045856188
H         1.13829762846915   -1.56019270849399   -3.47786665246431
H         3.00533333521058   -5.08479560922033   -1.22717495517618
H         5.17170825011452   -7.62360319544287    1.60984056071359
H         4.44072351691896   -6.45707506517808    2.73900070806869
H         3.50378542653641   -7.87610895266102    2.17791594265754
H         2.09655535112145   -6.08679102991690    2.83244663665954
H         0.11351815057050   -4.66494722314212    2.72727792381039
H        -1.80322072209511   -4.49608431040519   -0.53553873112927
H        -4.04932414952111   -3.64119313291905   -1.48277957378630
H        -5.63905979063997   -1.72965872925883   -1.74217471197525
H        -5.09161382843965    0.42313625186573   -0.59784827677914
H        -3.04047037611331    0.57626987016746    0.75915602461688
Cl        0.31977131701167   -0.76892052888984   -0.72856475628762
