71
 energy: -118.582756374301 gnorm: 0.000322219810 xtb: 6.4.1 (afa7bdf)
Ir       -0.34266759487908   -0.44871766390258    1.60269959770556
C        -1.81625352109428    1.34661989865322    4.20230213817216
C        -0.61359746143497    0.74165094921685    3.57438936933479
C        -0.16315056883037   -0.60192862733663    3.82700302107040
C         1.14728198904425   -0.74692152041080    3.25550885317250
C         2.10107697997551   -1.84500769354064    3.56792024013508
C         1.44555086140855    0.45411195716689    2.53259641389129
C         0.34879828995228    1.38765408028711    2.74531362700342
C         0.42150922950483    2.82667343754313    2.45072425910749
C         0.34208406991042    3.73657190820578    3.50426120309044
C         0.48406476165044    5.08950208667161    3.27120832448484
C         0.70618071098501    5.57510259899068    1.98379455593660
C         0.87905697553204    7.01530768180488    1.74288199910793
C         1.84890281075812    7.47203660237822    0.85225460813096
C         2.02372467693882    8.82635290420945    0.63490952262395
C         1.22846123080764    9.74681026625766    1.29806688700177
C         0.25763596412636    9.30383412141320    2.18175144982567
C         0.08592122640914    7.95003106029994    2.40568490463674
C         0.77155640545023    4.66115855924019    0.93319706350449
C         0.63257802386994    3.30741931441900    1.16121602818465
C         2.75603803130979    0.81654153587128    1.93076701315741
C        -0.80564341269040   -1.54859315910545    4.78130556266299
H        -1.66066254143959    1.38438716683134    5.28120543092135
H        -2.70499147473173    0.74428256070401    4.02560179587165
H        -1.98791777605595    2.35282942197237    3.83412378640323
H         2.59914621826577   -1.60091381404461    4.50757022068944
H         2.86042901780725   -1.94903297574655    2.79926897274927
H         1.59276768817077   -2.79695647163917    3.69416909523670
H         0.20420558401964    3.38068859358628    4.51341062170441
H         0.44812708075007    5.77847990586637    4.10144284019711
H         2.48454970114443    6.76224666756920    0.34324801966135
H         2.78448669351729    9.16668061554533   -0.05287224129278
H         1.36453716024526   10.80454024905402    1.12620804114467
H        -0.36773546343767   10.01802328174324    2.69786129616341
H        -0.68419901646678    7.61313111240729    3.08407479328998
H         0.91715501768765    5.01850001976618   -0.07495985787304
H         0.66012351706950    2.61773274761451    0.33205721925044
H         3.34850397816894   -0.06594703492078    1.70981913045636
H         2.62014972589524    1.39420585307838    1.02070307483751
H         3.30291034413802    1.43887775316413    2.63985614302477
H        -1.88723723624734   -1.44803753095137    4.76707403891176
H        -0.54034820975097   -2.57776244349240    4.55598154685460
H        -0.45942578143270   -1.32476209107186    5.79113216331759
O         0.40892403275796   -7.08391066967434    2.68577257697266
C         1.44882897739631   -6.70534491470961    2.19541961749854
O         2.55019459999617   -7.44224743958418    2.16291653152073
C         1.61907997145388   -5.36298119405303    1.57238732344061
C         2.83037782393940   -4.95987626305660    1.01513063619081
C         2.94082330617289   -3.69749793293326    0.45364095714869
C         1.86237999160265   -2.83125705339839    0.45319030768387
C         0.64263933610462   -3.24063474155633    0.99694461057316
N        -0.45032558101590   -2.36283867310776    0.95477427444903
C        -1.59037429066261   -2.79475589862862    0.51743907189345
C        -2.64788070162135   -1.84217351447981    0.39154087407194
N        -2.34971513256123   -0.58674142154539    0.81078612494837
C        -3.22451449110688    0.38455347227735    0.55978500923833
Br       -2.73884885148016    2.14787490407650    0.99705339499405
C        -4.46517769788813    0.16301293062741   -0.02680468049889
C        -4.81395361197070   -1.12305129265592   -0.40968722143720
C        -3.88094747722861   -2.12340622847062   -0.21033179279163
F        -4.13273344338019   -3.37440873397831   -0.60189049844967
C         0.52143189913610   -4.50963459078719    1.55361641632387
H         2.42106553114119   -8.31654403992112    2.57259560358922
H         3.67135116083329   -5.63388181590401    1.02687354603024
H         3.87496086335905   -3.38631657852174    0.01322035408394
H         1.93273668880451   -1.85115514042872    0.00568091535266
H        -1.73057821542409   -3.81461723157339    0.17666072017656
H        -5.14025549610163    0.98957563866527   -0.17923230258783
H        -5.76614524565117   -1.34213394462456   -0.86627232430911
H        -0.40426972153159   -4.84259346462670    1.99917198728814
Cl        0.15020886889522    0.19577094721042   -0.64155380686790
