73
 energy: -111.074255976676 gnorm: 0.000809621188 xtb: 6.4.1 (afa7bdf)
Ir       -0.83030215154952   -0.86258589634900    1.49670248691187
C        -1.87026942670282    1.59407453251049    3.84363226240403
C        -0.87717476691810    0.63368602386822    3.28990097075393
C        -0.83325243011377   -0.75018152395203    3.72822764804240
C        -1.77860661610212   -1.34968474733817    4.71088816550438
C         0.41628448528444   -1.30835158446840    3.32449751121093
C         1.00064976378372   -2.57991195085023    3.82965484208499
C         1.05955321063929   -0.34582414121580    2.47822712933134
C         2.45440958904376   -0.44682469396807    1.95981695481986
C         0.27681836420523    0.88740423752021    2.51260055643638
C         0.82426967292220    2.19997458723464    2.02508679360313
C        -0.09133063568711    2.98668354086551    1.08295425048155
C         0.62315030462225    4.24684241631923    0.60327320875429
C         1.02618834739319    5.11981445394544    1.78877309619172
C         1.91925186722270    4.33800420409919    2.74824709757125
C         1.21378125687408    3.07350598336350    3.23045679672598
H        -2.87709307848292    1.18552961056780    3.81148093659350
H        -1.86481165334159    2.54105112947547    3.31879090314730
H        -1.61849793948060    1.77054138913441    4.89066827021673
H        -1.74421701696856   -2.43481484791013    4.68052803034247
H        -1.49880098324315   -1.02939990429901    5.71524367223426
H        -2.79782682406475   -1.02092313550080    4.52704156573091
H         0.23658197044039   -3.33158770289267    4.00628691974300
H         1.74358823506035   -2.98489059288372    3.14917834174642
H         1.49090868091622   -2.37032175966918    4.78139615800640
H         2.77936741210429   -1.48230976189671    1.91616205293566
H         2.53090260649161   -0.00780893155940    0.96776621227901
H         3.12595797627891    0.09679224153215    2.62484237439789
H         1.73935210349389    1.98624246639910    1.46507687243066
H        -1.01210396366721    3.27223438492989    1.59096885313388
H        -0.34955893184093    2.35829598510326    0.23045206776707
H        -0.03045880248809    4.80990382185871   -0.06576509880384
H         1.51471784433371    3.96986892669281    0.03627774430610
H         0.12981816564538    5.45409433914973    2.31647504234450
H         1.55189541606192    6.00842305949678    1.43391133583489
H         2.17807674790656    4.96151035707734    3.60656435580400
H         2.84864226214818    4.07069252378512    2.24005175750484
H         0.32125491534525    3.35149294846765    3.79013165575700
H         1.87072444490667    2.51243384920462    3.89785010295575
C         3.65900587063652   -2.53964224604781   -1.34109191528110
O         3.58868584297375   -3.74057298904574   -0.59149954480357
C         2.45821824680729   -4.02041784229631    0.07782860668043
C         1.34229903120679   -3.19480359779566    0.16246377798932
C         0.20459067685030   -3.61152097877551    0.85405570600706
N        -0.91463355692821   -2.76258632488738    0.86368576140129
C        -2.06422553473573   -3.24276808768428    0.50146236063821
C        -3.15746761127258   -2.33012414887895    0.39775206568842
C        -4.38736116633093   -2.66510714992212   -0.17490035991480
C        -5.33359804030442   -1.67722465105936   -0.33896273712118
C        -5.01309225603963   -0.36525636567645    0.02792932475237
C        -6.00800874358542    0.63192391575903   -0.07943103393981
N        -6.84946063532071    1.40693318754717   -0.16028680192711
C        -3.73920249390466   -0.08835951473156    0.55687382204353
S        -3.20804179423001    1.53231839478332    0.96869025323081
C        -3.51371627018711    2.43999527512582   -0.57560060910402
N        -2.86324024950917   -1.06669347048641    0.78958345740817
C         0.16680082178464   -4.84828402573470    1.49182354185609
C         1.28536684942655   -5.66356607996535    1.44858916968021
C         2.40153114537366   -5.25516405125369    0.75054719998463
F         3.47777076426844   -6.06550413991382    0.70464491820403
H         3.59739104302813   -1.66545748337612   -0.68992525003361
H         4.63044257463953   -2.56317170889389   -1.82982647380944
H         2.86928168898838   -2.49822273570908   -2.09464737531841
H         1.31463227592844   -2.24119680691577   -0.33937740039123
H        -2.17440872879720   -4.27495759102172    0.19094294912296
H        -4.57776670387692   -3.67912914175450   -0.48442883624905
H        -6.30941682478907   -1.89339702661660   -0.74583112636104
H        -3.09170365274684    3.42586336812066   -0.40847188297092
H        -2.98331072914405    1.94179052997880   -1.38105169469126
H        -4.57440173688829    2.52301474247576   -0.78049300676285
H        -0.71017062028492   -5.15776782915478    2.03629242129960
H         1.29875569988235   -6.62045758272264    1.94438231256672
Cl       -0.39678160536051   -0.19470668110163   -0.73878549721412
