74
 energy: -118.088535411456 gnorm: 0.000453701776 xtb: 6.4.1 (afa7bdf)
Ir        0.39408217660549    0.09773985331492    1.78100945553861
C        -1.64430375355245    1.29159384094520    4.17749237647907
C        -0.30095733231936    0.81300765914299    3.76330715160956
C         0.17816415486029   -0.52119705576241    3.97538749597948
C         1.54270823875297   -0.53772259638486    3.56113488505387
C         2.51128256252379   -1.65765196012756    3.72317666591590
C         1.95380661772749    0.84969480136615    3.27417926935951
C         0.83416927379895    1.67050360226600    3.41745485538411
C         0.78312017924175    3.12318763402137    3.23637587578890
C         0.23916859647473    3.95089297612469    4.21652338073886
C         0.20738993342703    5.31970439586310    4.03831496365408
C         0.72063536605200    5.90531706097597    2.88211195855893
C         0.68474525960650    7.36308211159855    2.69039831901349
C         1.77009888591645    8.03144402058835    2.12544723633446
C         1.73374491444976    9.40127814861142    1.94078086253463
C         0.61165616013909   10.12523346025285    2.31046154263706
C        -0.47333661641259    9.47109117812239    2.87141229594484
C        -0.43669396492332    8.10217694533283    3.06369910795809
C         1.26816777514429    5.07381091457314    1.90594653351508
C         1.29296619751815    3.70598551374749    2.07664263256042
C         3.37395419928002    1.26802295025543    3.10697189525794
C        -0.60230333606307   -1.61744278114412    4.61852240389331
H        -1.66055728677621    1.39039070806109    5.26417370727071
H        -2.41569945101071    0.57607275239601    3.90107364594207
H        -1.87310144928744    2.26027883902951    3.73920368490144
H         3.03406597284764   -1.53154672523333    4.67205384934130
H         3.25632338659584   -1.65779424631608    2.93184401365557
H         2.00980471229835   -2.62049330531684    3.73651045375872
H        -0.13362086569749    3.52317954547842    5.13402094494974
H        -0.20063065934241    5.94718726626360    4.81645692846827
H         2.65576983485925    7.47828381448539    1.85004209266990
H         2.58470108415127    9.90746812903472    1.50914959526252
H         0.58377885194613   11.19470805734926    2.16375604853426
H        -1.35137566066919   10.03069267350887    3.15925609675911
H        -1.29283523343369    7.59812737108583    3.48790108526248
H         1.65624855511475    5.49978862995465    0.99295535188261
H         1.68739505162836    3.08356104756168    1.28665967522760
H         3.90140106044531    0.62453690810657    2.40787824580950
H         3.44048892657230    2.30024186837838    2.77708711899200
H         3.87586083564464    1.18425988781444    4.07169983866347
H        -1.58783988565583   -1.71968670068000    4.16983065953975
H        -0.08195922520401   -2.56768800528903    4.55129975949897
H        -0.73906810641286   -1.37897127275723    5.67348121194707
C        -1.06898309035398    6.23008046373731   -0.55907423189362
O        -1.56666653583523    4.99893700370470   -0.03826003893863
C        -0.92605111255007    3.87801643582289   -0.33785575329529
O         0.06290527375610    3.80041448660738   -1.02930632414267
C        -1.58499002120859    2.68246215716178    0.27324755383490
C        -2.77923684223533    2.77168033230902    0.97120416887848
C        -3.36045518906810    1.58846793022759    1.43485030735060
N        -2.80645217400960    0.40600943536495    1.31448301328470
C        -1.63935985258286    0.30077776826023    0.66029596400177
C        -0.92828261132745   -0.96546048517242    0.66666290120371
N        -1.11169055651847   -2.03351998003444    0.07553344789039
C        -0.44739345561998   -3.24097393236255    0.11935144547030
C        -0.45811727321952   -4.02760519242398   -1.03316714889746
C         0.16818765508413   -5.25878822973933   -1.03599409630865
C         0.78424148246048   -5.69694998327481    0.12414666325612
F         1.39232843236693   -6.90547744502648    0.12780323620630
C         0.79665303204860   -4.94042463129794    1.28418570298822
C         0.18033706995317   -3.70541788964077    1.27671031695557
C        -0.99107315980880    1.42830509101176    0.08592536366907
H        -0.29749286981028    6.03708392189199   -1.30509978423020
H        -0.65828857519189    6.81155948542221    0.26689252370375
H        -1.90899673357539    6.75923229918891   -1.00505968544216
H        -3.25905149383847    3.72337651765495    1.12317314813749
H        -4.31774535565715    1.60233234546152    1.93694747734451
H         3.01986511060939    0.17887831608366   -0.19654216231065
H        -0.94828284505167   -3.66091977535894   -1.92050191721629
H         0.17855097519987   -5.88189779104262   -1.91577752943872
H         1.28430906972247   -5.32538338166649    2.16528743821184
H         0.15964508898237   -3.09008720716400    2.16224565853673
H        -0.18941605849717    1.34772591096157   -0.64093742821828
Cl        1.99282067878023   -0.55508589347597   -0.02068040252381
