70
 energy: -96.960866892815 gnorm: 0.000509135938 xtb: 6.4.1 (afa7bdf)
Ir       -0.34151713879471   -0.80146872459554    1.58707581735014
C        -2.08296321775484    1.35179975385162    3.65640449382472
C        -0.86465087280861    0.55290925662282    3.34205297829637
C        -0.64961436593194   -0.80148281411263    3.79032741776134
C        -1.59874870203287   -1.59339074534739    4.62572464990919
C         0.74207570303170   -1.11450780899025    3.60853904948224
C         1.41431196429303   -2.27924870736606    4.25319756351250
C         1.33830863134980   -0.04110804864683    2.89114068268687
C         2.78628318273420    0.16746624966937    2.59505329534602
C         0.33743849967342    1.00492085641013    2.74142357966139
C         0.65198699318466    2.38016435955473    2.25613435502686
H        -2.04849927271605    1.62716618393275    4.71152574495578
H        -2.99188000044993    0.77813143599599    3.49108285977869
H        -2.13142107905606    2.26142543596668    3.06664165370594
H        -2.62984898971118   -1.39008678932994    4.34944847956765
H        -1.40977238293911   -2.65885450605574    4.52763324727394
H        -1.46986936114885   -1.32216965294334    5.67440596745296
H         0.93953134443749   -3.22073103327710    3.98537747799294
H         2.46957928196509   -2.32654150758318    4.00164159473094
H         1.32897401992942   -2.16440226938620    5.33462041858245
H         2.91637058116800    0.56867463373472    1.59236541151382
H         3.35213982521577   -0.75533349885472    2.67435287855441
H         3.19758793277087    0.88850020971902    3.30214913203994
H        -0.23914827518133    2.99864690646239    2.20540987481733
H         1.11269032017566    2.34332102424429    1.27049371194519
H         1.36101537460528    2.84898636686887    2.93852529828301
C        -6.77355873429481    5.30956220814024   -0.19636571954693
C        -5.50155960323485    4.49087019783993   -0.04272453388350
O        -5.87600525344790    3.11820244499210    0.01598735111044
C        -4.94740711796407    2.16935450607233    0.19189027908114
C        -3.56003012765669    2.41692158914167    0.32159061034168
C        -2.68443783150289    1.39027219279423    0.53834039805851
C        -3.12914112677122    0.05690641786831    0.61421002342720
N        -2.25337205394709   -0.94927853804922    0.82790573393116
C        -2.65869569934495   -2.21956117493113    0.68110752936432
C        -1.58136304267264   -3.16110122804712    0.64650037854573
N        -0.38439626294276   -2.72013887606163    0.85069525854046
C         0.72486901202306   -3.58752483481381    0.48775811266951
C         2.08066661539391   -2.96654658040337    0.79551831359288
C         3.19501008894324   -4.00198221343908    0.59437784172890
C         2.87873407025125   -4.95175427625110   -0.56744865454260
C         2.02444931548861   -4.23437979173456   -1.60634324100667
C         0.64732715855853   -3.89059581545698   -1.02779934250683
C        -4.01079103229316   -2.55667466711453    0.46514552221442
C        -4.93970718509786   -1.56118656767191    0.37599802126901
C        -4.51847581436627   -0.20956362728343    0.40940821741008
C        -5.39948446795645    0.85859934989238    0.22725454541721
H        -6.52312845251841    6.36481936200085   -0.25036889789849
H        -7.29741680050599    5.02180587518338   -1.10359477692379
H        -7.43103126477392    5.14263740899492    0.65228170969959
H        -4.83723024147267    4.65710076500397   -0.89983394596302
H        -4.98038099535330    4.77374653053518    0.87995860151313
H        -3.18126781961420    3.42261563691792    0.23798712248036
H        -1.62410416655587    1.57765884661508    0.60207385514747
H        -1.77102540382559   -4.18509078515048    0.34480956543200
H         0.62457075398608   -4.52113368881240    1.05525856022904
H         2.22597269986549   -2.11320283979140    0.13421159120271
H         2.10312406613898   -2.60840368454915    1.81909669886558
H         3.33520989592497   -4.58316305353153    1.50738837319140
H         4.12846380644014   -3.47452772751900    0.39635123141246
H         2.33957313537399   -5.82969374320038   -0.20617360320214
H         3.80490374961076   -5.30515600365743   -1.02193431323027
H         2.53792788018768   -3.32598752753555   -1.92304082937130
H         1.89475041305899   -4.86181800379487   -2.48931160211903
H        -0.04075094679110   -4.71919137569792   -1.19983811790448
H         0.25190948012059   -3.00959557668736   -1.53677872839092
H        -4.28388398755611   -3.59583899412215    0.38370300867121
H        -5.98739599355043   -1.78241955801592    0.24586679457860
H        -6.45174494162363    0.66910368398232    0.08880477982798
Cl        0.48165823026094   -0.05196682919436   -0.52497135651906
