71
 energy: -122.672901529181 gnorm: 0.000426003247 xtb: 6.4.1 (afa7bdf)
Ir        1.40619783835175   -1.28877021873771    1.99674835979134
C        -0.98052109618048    0.60035757903144    3.37456571549326
C         0.37225090385215   -0.00341228827800    3.46876895698582
C         0.69266732892638   -1.22671944838483    4.13563455717164
C        -0.26537655024061   -2.07998877974276    4.89181617532784
C         2.11496440912712   -1.38735871524781    4.09928634976425
C         2.89696384919370   -2.43231383706533    4.80085036533726
C         2.69766455824673   -0.22533345888724    3.44456417844307
C         4.14734065360546    0.07813195330361    3.38947337298451
C         1.62173240293940    0.62804589757848    3.04931641482688
C         1.76067619952678    1.99441482518165    2.52534113413390
C         1.17064169631533    3.04985446043564    3.21999539400188
C         1.34963308475336    4.33983518075581    2.75426041743466
F         0.78203873205505    5.35248317618827    3.43266528808121
C         2.08467426102735    4.62713566799776    1.61718523479161
C         2.65301712027120    3.55615615732050    0.94878843292536
F         3.37203507046284    3.79590083863655   -0.16251993372295
C         2.51127569598822    2.25001500704003    1.37971034481514
H        -0.99835586822851    1.41453834792407    2.65630995266445
H        -1.25924379028491    0.99365519336536    4.35361166723542
H        -1.72822280782118   -0.14190087762803    3.10348705991943
H         0.03452074247567   -3.12354411257913    4.88338150835713
H        -0.28239765295619   -1.74564258199084    5.92966147099108
H        -1.27257370752326   -1.99197132405522    4.49682656608417
H         3.11145000411792   -2.07425384404667    5.81007903297132
H         2.34084588672008   -3.36043423035008    4.89439788683698
H         3.84889978236890   -2.61294584175338    4.30928060847846
H         4.69906273088862   -0.71638728626332    2.89040317504122
H         4.32944422472209    1.01155390616401    2.86580403330620
H         4.53117961848091    0.15845872935491    4.40705496019987
H         0.60925740731047    2.88600320187395    4.12481382119346
H         2.20994951612019    5.63861902394407    1.26803340972229
H         2.94864719453425    1.44510435082788    0.81050455071511
C        -5.48542399837953   -3.53896942251554   -1.19428932959674
S        -6.47596254596610   -2.02349972547458   -1.35335594724576
C        -5.26983255650287   -0.82638588290155   -0.97940073369825
N        -4.04976053440666   -1.23711428531775   -0.70490681952435
C        -3.09955136824862   -0.34924127206072   -0.41994079738989
C        -1.76808096984519   -0.87243531099449   -0.14898579780104
N        -1.46857842803446   -2.07757108443822   -0.36096249528984
C        -0.32769629235573   -2.73705835854847   -0.09228678332063
C         0.05673091780223   -2.97856905839347    1.27173484514273
C         1.16734701048771   -3.81479049882807    1.52827149980644
C         1.94819748256617   -4.33296082878840    0.48608386293807
C         3.11799837272085   -5.15611643243894    0.68801961344735
C         3.58278979578388   -5.46712988844756    2.06935207086019
C         3.76987596332732   -5.61718536832209   -0.40552850759165
C         3.34912345761003   -5.32342378092196   -1.75627219257047
O         3.89921581666629   -5.70270794946516   -2.76523168416307
O         2.22721598154085   -4.54280989471199   -1.90184768311980
C         1.55254909757436   -4.05924524954216   -0.84399335034876
C         0.42068751212638   -3.30281194321518   -1.12179789840085
C        -3.34305514316524    1.02486869757881   -0.38299780458583
C        -4.62234652172535    1.47608728511028   -0.67207075116887
C        -5.61558027981539    0.55208295209424   -0.97943322137419
C        -6.92614131502993    0.97528157757348   -1.28078595478325
N        -7.98709066670450    1.33844784508435   -1.52504484895417
H        -4.59715521116804   -3.44253535994184   -1.80768487331491
H        -5.22056066570358   -3.67939266371350   -0.15268066850506
H        -6.11820160410197   -4.34744404943089   -1.54484616804270
H        -1.02169753202682   -0.15148333233219    0.21500127108227
H        -0.73013608534918   -2.90010715206078    2.01872751133238
H         1.32771395543705   -4.19145497215872    2.52990481967735
H         2.83054546086423   -6.05236209896620    2.59479938829818
H         4.50475426433130   -6.03878645087747    2.03732492102082
H         3.75508847113606   -4.54686063181514    2.62226510552487
H         4.65208139546531   -6.23181274854580   -0.32573796666668
H         0.14032799979484   -3.14418075233785   -2.15029700040467
H        -2.55614605142630    1.72303224051452   -0.15032992276961
H        -4.85731331213039    2.52980372556636   -0.66267193447444
Cl        2.37337468758046   -1.02441052833963   -0.02216823609691
