65
 energy: -87.573334104600 gnorm: 0.000418145190 xtb: 6.4.1 (afa7bdf)
Ir       -0.27111450972289   -0.79664402279426    1.99883089455751
C        -2.64670005664896    0.93671148588620    3.86961436066283
C        -1.28926673749540    0.33680661704800    3.73509879033540
C        -0.97404026633565   -1.02053060388574    4.10754047701588
C        -1.94252161868230   -1.98169839722325    4.71076626825425
C         0.46052080806649   -1.15421616678163    4.11990956178199
C         1.22301337227341   -2.25705253567549    4.77120291766847
C         1.01238553013359    0.05610453993091    3.61684462304673
C         2.45313154686973    0.43457644432348    3.57764678632960
C        -0.07851082350324    0.98710264732308    3.38472374006887
C         0.13718509356528    2.43443839805603    3.08796558048675
H        -2.90949504569022    0.96456476544248    4.92769350000343
H        -3.39891521616892    0.34217146763404    3.35586153183735
H        -2.68024942349415    1.94935605054554    3.48113246948528
H        -2.93551193043308   -1.84970728040002    4.29047515011811
H        -1.62931595400409   -3.01041595923299    4.55512724152134
H        -2.00288334626901   -1.80545379251530    5.78556966190078
H         0.64977893095237   -3.17945634946319    4.80052569137328
H         2.17796455584222   -2.43165303337117    4.28263697603551
H         1.42825450216548   -1.96252296070490    5.80170840444260
H         2.68301080803903    0.96890101210365    2.65832387634410
H         3.09572705580771   -0.43780713473171    3.64930258499018
H         2.67392680081847    1.09599799441017    4.41602158773900
H        -0.80186662434431    2.97524452541081    3.01275925864362
H         0.69315625428535    2.55843368525204    2.15935175707551
H         0.72822482462702    2.88023037710629    3.88801816562825
C         6.45016349549147   -2.18528703273285   -0.93422723404174
C         5.22173354732264   -2.87684146815311   -0.35243479106033
C         3.92947280207608   -2.20553372872088   -0.81485715755989
C         2.66047438267025   -2.93433199082905   -0.37137555578319
C         2.46039776321927   -2.90253161363464    1.14209476949984
C         1.11712677458129   -3.52127717826625    1.55115999604577
N         0.01499871030192   -2.65352434336125    1.21987735485364
C        -0.84289169755562   -3.04231545579737    0.34056683484189
C        -1.88127053362594   -2.12833161009643   -0.03130522138918
C        -2.87689216346212   -2.44848662181455   -0.97495081896023
C        -3.81169671188803   -1.50771481423821   -1.29938701214183
C        -3.70622348321475   -0.21272044480267   -0.74780254844274
C        -4.58919761003014    0.82704470101701   -1.09937083584350
C        -4.41414995302091    2.09116392617518   -0.60437769563570
C        -3.33312176301596    2.36699513687270    0.24691977357454
C        -2.47526762726684    1.37204829068434    0.63234237095611
C        -2.64922130130482    0.05408268827211    0.17263557729464
N        -1.80693422535987   -0.93343839792670    0.57114274100774
H         7.36239832672627   -2.66845136703351   -0.59054808862864
H         6.43300910875825   -2.22283859430761   -2.02168661650148
H         6.47997091757458   -1.14069994830503   -0.63090748575698
H         5.21819881875146   -3.92414923722641   -0.66450854342494
H         5.28867209299775   -2.85142227285474    0.73621989508219
H         3.93539023610279   -2.15676409201495   -1.90652609496607
H         3.89772063265165   -1.17888381396457   -0.44462961551001
H         2.69910797043222   -3.96935572614716   -0.71907916118127
H         1.80860976717741   -2.44490506355530   -0.84806936346651
H         2.49792626767643   -1.86630348436541    1.48112182195614
H         3.25436329352069   -3.46300232714496    1.63401355436133
H         0.99628693763984   -4.48774652528567    1.05126255682490
H         1.11023923071321   -3.68163870678106    2.62969099645354
H        -0.77376907558728   -4.01385077901101   -0.13702881538157
H        -2.88693191077923   -3.43348756618388   -1.41179814819563
H        -4.61134971008163   -1.72600640882726   -1.99018310946048
H        -5.39494701840307    0.60792177442540   -1.78308401649095
H        -5.08970372357349    2.88484667405676   -0.88272636400869
H        -3.17749584645404    3.37749617870026    0.59158732988182
H        -1.61849608903346    1.58603158798883    1.24769223316019
Cl        0.96746983655159    0.22584188150767    0.23433563069737
