78
 energy: -102.392562931080 gnorm: 0.000426862881 xtb: 6.4.1 (afa7bdf)
Ir       -0.80112213338478   -1.33626400493365    1.60469074070438
C        -3.10261575902298    0.90639245060505    3.10000817645509
C        -1.84692825732978    0.09924128991647    3.10898352278649
C        -1.83195626293669   -1.26725387651733    3.58862039617368
C        -3.03183031562471   -2.00991611780260    4.07001181127384
C        -0.47494144944355   -1.64292279625554    3.82591651864925
C        -0.05822447107770   -2.83061962512199    4.62471119386288
C         0.35692020113638   -0.59330768455756    3.32093807153302
C         1.84038318387908   -0.50372299987969    3.47766801357017
C        -0.50547874083749    0.51950443024972    2.93694264483332
C         0.03287110169998    1.90237254218391    2.69377819974963
C        -0.49321482443717    2.62560055433270    1.45000162054152
C         0.21346285998453    3.97055807703680    1.30133598235103
C        -0.01469175054953    4.83616282062890    2.53805196542843
C         0.47691934987107    4.11610449060387    3.79087354425220
C        -0.21659204637684    2.76539740526170    3.94339196670726
H        -3.90205521031043    0.38920139545304    2.57360206083698
H        -2.96350532493746    1.88210090396195    2.64991722850112
H        -3.42319133423091    1.04665656497697    4.13348934757019
H        -2.84787041333475   -3.08015024165991    4.09230387321741
H        -3.27213560934271   -1.68588228600557    5.08354816130535
H        -3.89580017975187   -1.81184243326225    3.44126828257027
H        -0.35471712429932   -2.65993406746070    5.66039376689673
H        -0.55196034110969   -3.73985325613176    4.28934000292107
H         1.01797660725454   -2.97288880657663    4.60790200503043
H         2.28115718194183   -1.48682784554230    3.61332423133620
H         2.29559330134194   -0.04395855914318    2.60368291051854
H         2.08208434695228    0.10543800913875    4.34904478512138
H         1.11566205064750    1.81329138622673    2.56529229833923
H        -1.56544022795844    2.80705614089011    1.52747859282597
H        -0.30487073669833    2.01276249929153    0.56768979634402
H        -0.15858070134255    4.48489192063355    0.41282100165083
H         1.28508349020725    3.80835728901638    1.16374059694119
H        -1.08061459240062    5.05526148345379    2.63880810783497
H         0.50939208128567    5.78774388053404    2.42773674124900
H         0.28257740181077    4.72917468171157    4.67338579629717
H         1.55700484921071    3.96775161138362    3.72052067377194
H        -1.28752052321430    2.92166650156165    4.07695661250576
H         0.16170996597893    2.25229365503550    4.82959386750696
C         5.78750567801292   -2.69291269430082   -2.05253101690973
C         4.73323016694247   -3.33144547112194   -1.15427734773520
C         3.32259494775258   -2.91236344003777   -1.56578841856951
C         2.21364872882315   -3.62158502071857   -0.78691722903928
C         2.19913178916056   -3.23769180380710    0.68983371035683
C         0.99113080176460   -3.82874290590309    1.43433636990578
N        -0.23567241036656   -3.18739674543441    1.03162381337269
C        -1.01993480134855   -3.80321149330228    0.21517869111654
C        -2.16759961826166   -3.09832948600289   -0.27734649947588
C        -3.09223662817641   -3.67248567488020   -1.17146089137677
C        -4.13736825679479   -2.91671691951412   -1.62180557583255
C        -4.21516621253487   -1.55705059398701   -1.25199585892964
C        -5.21687806047626   -0.69652769662291   -1.74274403793921
C        -5.21486767586066    0.63364828493385   -1.41963071461307
C        -4.19744201299148    1.15933345768281   -0.60734791752427
C        -3.22720319674050    0.34478300065125   -0.08896830310082
C        -3.22195564243470   -1.03309470224349   -0.37233850983036
N        -2.26772909933708   -1.83627808138791    0.15806898336525
H         6.78739030741953   -2.99299377713303   -1.74613527904584
H         5.64332992254158   -2.99408602703991   -3.08834437319015
H         5.72471093593751   -1.60773709441556   -2.00241279460680
H         4.82085506467899   -4.41887565669890   -1.21489312542773
H         4.92614774458617   -3.03533011214511   -0.12216192453316
H         3.19288890104144   -3.13059521948650   -2.62860822384150
H         3.21190305111581   -1.83363015409104   -1.43883421514692
H         2.33502840917489   -4.70262324252229   -0.88990428083745
H         1.25879647173026   -3.33855980092259   -1.23614974678836
H         2.17362364114091   -2.15158303773156    0.77505862699990
H         3.09966969471888   -3.60607305509282    1.17910662897431
H         0.93322412972999   -4.90304498249319    1.23229426112876
H         1.13112303861254   -3.67430533338107    2.50292951943485
H        -0.81110276420334   -4.81098294687577   -0.12741226277293
H        -2.96276077444028   -4.69886796731529   -1.47301082258649
H        -4.88801527790651   -3.33124522103134   -2.27684574769364
H        -5.97315312240573   -1.10551332728485   -2.39502013548625
H        -5.98049824112217    1.28880230057122   -1.80476440363647
H        -4.18226919272836    2.21769579032881   -0.39887338135426
H        -2.41782263068713    0.74347537657187    0.50020240795366
Cl        0.38960655074539   -0.43664790906265   -0.24579708474696
