83
 energy: -118.253868636390 gnorm: 0.000441593409 xtb: 6.4.1 (afa7bdf)
Ir       -0.19245395438523   -0.66332746518457    1.79919020619601
C        -1.79821976177576    0.35594035949021    4.56586229593427
C        -0.50423999219822    0.11237300879424    3.86731479536672
C         0.26635682027782   -1.08631090320829    3.96326793914367
C         1.49176439878627   -0.88725230455852    3.23501951774377
C         2.68497085510967   -1.78617132173824    3.24721275505428
C         1.51153500737698    0.47164228204082    2.76713906435845
C         0.26372004499927    1.07807751737958    3.11164544228029
C        -0.07096703690251    2.49135196819931    2.90214192040568
C        -0.52091429192448    3.28303080803670    3.95789746114405
C        -0.81576918188108    4.61675392284518    3.75700419013866
C        -0.66897413337865    5.20355055449738    2.50037739507593
C        -0.97656222292394    6.62652755980595    2.29399372832111
C        -0.15567199435007    7.41893218899548    1.49372234096668
C        -0.43442011022944    8.76107565013030    1.31212454792734
C        -1.54008770220701    9.33217697245351    1.92127108487692
C        -2.36581587881719    8.55226694478251    2.71456436769572
C        -2.08620138998513    7.21104190988896    2.90150797099378
C        -0.21476824242315    4.40967907106873    1.44720511402258
C         0.08015593093305    3.07496011706383    1.64258448269503
C         2.68433653501374    1.14600055499114    2.14970085040622
C        -0.07433196055747   -2.25454885938451    4.82333597102663
H        -1.60699971011263    0.55583778274583    5.62090541844850
H        -2.44244982651340   -0.51849894589280    4.50948966107422
H        -2.31943936641400    1.20920150121246    4.14060804121015
H         3.31532494091036   -1.53666486213845    4.10174319052381
H         3.27296714672217   -1.65421517827451    2.34260574543530
H         2.39785754641811   -2.83001548613558    3.33263842256522
H        -0.60911859147863    2.86111995947424    4.94640257213818
H        -1.13966520257685    5.22087543067315    4.59100256492935
H         0.71929826312099    6.98691260763164    1.03035874076225
H         0.21444881053463    9.36602765811651    0.69531901447127
H        -1.75664595948533   10.38070887817869    1.77871109845168
H        -3.23123686181366    8.99250207956286    3.18850306653049
H        -2.74413901366460    6.60812646939786    3.51017583320638
H        -0.11064279980130    4.83854262125826    0.46181239574198
H         0.41057371357704    2.47023897120287    0.81054912221403
H         2.80542417709363    0.83963005589324    1.11046430885323
H         2.55877431142927    2.22553661416050    2.17443110888290
H         3.59041336827320    0.87342687691883    2.68773248111527
H        -1.13376649827305   -2.49212280249385    4.77004553731572
H         0.50343537160289   -3.13310773332592    4.55201189206364
H         0.16056178038664   -2.00603190526936    5.85912059149968
C         4.20339628014263   -2.59734222234396   -1.00413418971372
C         4.34891513507668   -3.85785051247669   -0.15539516998668
C         3.27694034712639   -4.92222219203199   -0.43091004432051
C         2.08292944031981   -4.88634728999953    0.52654351155200
C         1.22540148019812   -3.63546830095505    0.36489448583354
C        -0.03240770288650   -3.69725128877023    1.24334907045086
N        -0.79484771492505   -2.48271037707012    1.10134223537855
C        -1.85427552651826   -2.48217597511103    0.36580249377949
C        -2.54644142400604   -1.24004051050424    0.19277337952351
C        -3.67917047756222   -1.05905669282342   -0.60602606291341
C        -4.23070359058773    0.19587339233055   -0.71940109879213
C        -3.64250621217433    1.27016664028935   -0.03033225111463
C        -4.17203531392875    2.60382342485921   -0.13195588021097
C        -3.74677367055368    3.80591157640269    0.39686308033296
C        -4.65284829172448    4.78063003521650   -0.05952805737748
C        -5.56549236845826    4.11495324009245   -0.82916097099367
O        -5.28509496244969    2.81093579000501   -0.87847246441471
C        -2.51818300185626    1.00192916976185    0.75902862511221
N        -1.99097775808188   -0.20437287045862    0.86891234473551
H         4.25702047331346   -2.84739349057555   -2.06193409894283
H         5.01266114681048   -1.90343296219109   -0.78392053171588
H         3.25968873676051   -2.09037084845014   -0.82567108969660
H         5.33172071616147   -4.28736060515114   -0.36445440122291
H         4.33490580900895   -3.59357138827577    0.90359951769820
H         3.73386821955382   -5.91068429016362   -0.34487464528775
H         2.92206582180788   -4.81919435495712   -1.45804110702982
H         1.46715841559401   -5.76860878437738    0.33617589638354
H         2.44891355205975   -4.95613987760991    1.55289627883507
H         1.79589557315237   -2.74947323976111    0.63658505570288
H         0.92285686626268   -3.53064504087590   -0.67798837537748
H         0.26168059667425   -3.80456872039590    2.28876910920354
H        -0.63977693154939   -4.56056880093360    0.95413889682417
H        -2.21538902859558   -3.38308480841694   -0.11909540487323
H        -4.09783007591184   -1.90102414387793   -1.13320213709378
H        -5.10017965970388    0.36956682085581   -1.33298212160714
H        -2.89333371654889    3.97636695589875    1.02055395886074
H        -4.63204830955120    5.82946575730560    0.15076505010547
H        -6.42510298674062    4.45554110319382   -1.37203918483966
H        -2.03821769444696    1.80073189980124    1.30452848839923
Cl        0.71920847033658   -0.27605334645498   -0.36233144030061
