72
 energy: -114.399308250452 gnorm: 0.000666546485 xtb: 6.4.1 (afa7bdf)
Ir        0.23140379956759   -0.20996574832071    1.97134267214510
C        -1.29248359090246    1.75973442386055    4.15773229766570
C        -0.13927550968740    0.88087765833018    3.84200673166883
C        -0.03879649365473   -0.51067019541624    4.17111581884917
C        -1.04822068980332   -1.28221186368347    4.95107298133239
C         1.26289852608190   -0.95410591117529    3.78037272270439
C         1.88182221427738   -2.27344562288716    4.05967773164384
C         2.00158327119439    0.18633736395856    3.24998680089037
C         3.44543881673866    0.16731156623767    2.91321833044959
C         1.14054266604369    1.31809971527666    3.29748752690004
C         1.51546919096160    2.70147685169272    2.98602791310146
C         1.31752014829771    3.69858760602113    3.94041715733798
C         1.71341872961106    4.99117114242604    3.64960450794891
F         1.52582111569901    5.94573538394452    4.57883247554090
C         2.28978769679886    5.34154229164664    2.44094081140674
C         2.46839931743424    4.32931339635472    1.51377043504251
F         3.02256215367957    4.63031450225544    0.32477026576776
C         2.10037769812492    3.02048378381161    1.76200206830492
H        -1.26637482381898    2.67261609893236    3.56864209383503
H        -1.25364994653070    2.02991684350197    5.21445674379527
H        -2.23633595095118    1.24332544772708    3.99623227403110
H        -0.93754543901856   -2.35169556091106    4.80323724235212
H        -0.90677141972013   -1.07088532138755    6.01130887338517
H        -2.06076325439742   -0.99331880306843    4.68509584205701
H         2.48236062837461   -2.18518323455660    4.96690662951762
H         1.13410206194846   -3.04228131334225    4.22818595692254
H         2.54729357912843   -2.57668469204879    3.25498173968696
H         3.65539606941275   -0.54097785159831    2.11343632040431
H         3.78752641527200    1.15174198671556    2.60807951444858
H         4.01079067717821   -0.15203540339987    3.78877222056838
H         0.89335724097188    3.47917641208062    4.90611970992325
H         2.58534848899897    6.35595309771706    2.23077930469443
H         2.23434808838308    2.27370556145171    0.99609606040930
C        -5.32206627926220   -3.55352584657935   -2.02793676816220
S        -6.30379596136501   -2.03313709520460   -1.87313543423019
C        -5.21504615399329   -1.06763050597946   -0.92269480243538
N        -4.06749716041022   -1.60507391746665   -0.56019177323827
C        -3.20725954723182   -0.89483154552609    0.16551297473180
C        -1.95568162847611   -1.55287857923719    0.48407971983872
N        -1.52913715846014   -2.62100266903219    0.05441505915096
C        -0.28396187059798   -3.19214461497827    0.33471796453364
C        -0.42556171380440   -4.57568399499852    0.97549625515788
C        -1.14014910088469   -4.51199008940799    2.32885646846411
C        -1.14251025562844   -5.86627978953489    2.98485353433395
C        -2.25211131100545   -6.69619319927646    2.89561068385077
C        -2.23913589696309   -7.95574559261276    3.46993067825067
C        -1.11306066932115   -8.40186380341505    4.14139436274006
C        -0.00065964781529   -7.58189991414233    4.23558493085498
C        -0.01688697306645   -6.32387090158627    3.65994264515482
C        -3.46495683298878    0.41249893522049    0.57653148387664
C        -4.66593780090509    0.99543866012577    0.20034968300257
C        -5.56901886696818    0.25971612926429   -0.55971384082834
C        -6.79944518882786    0.82132914804999   -0.95784207095227
N        -7.79603131860125    1.29713279695165   -1.26999944256280
H        -4.38289259834650   -3.31724926734332   -2.51522525434127
H        -5.14844436997424   -3.96013585567781   -1.03863029288028
H        -5.91504512700416   -4.23313393627255   -2.63079216797342
H        -1.24125246580781   -0.90828399703299    1.25022855482264
H         0.30558689081956   -2.49423910793285    1.00342075493609
H         0.24946517466530   -3.29458942373087   -0.61391111754722
H         0.57019111306486   -5.00011542512632    1.10480095862214
H        -0.98368068205665   -5.22317344368170    0.29961854734027
H        -2.16504426493561   -4.17015700763788    2.18142483416116
H        -0.62329444371376   -3.79258177918733    2.96658978700425
H        -3.13574296421262   -6.35593881200824    2.37537227763199
H        -3.10984008431685   -8.59114766696814    3.39411422207243
H        -1.10291419867897   -9.38456190813929    4.58972159359302
H         0.88021322761540   -7.92599742790121    4.75819653966263
H         0.85833810034810   -5.69463167094114    3.73549959212867
H        -2.74000912041109    0.96465126802106    1.15551532694408
H        -4.90898310743945    2.00790766900179    0.48602097980037
Cl        0.67219778158247    0.33068556935750   -0.15653322251269
