66
 energy: -96.360487960782 gnorm: 0.000324141376 xtb: 6.4.1 (afa7bdf)
Ir       -0.75973870266570   -0.27397636069128    1.23720798910004
C        -2.15923661051944    1.87249275557429    3.54127802727804
C        -1.10619295438494    0.88950644087141    3.15744413353254
C        -1.21683502822376   -0.53683934244798    3.39045798394338
C        -2.38297624300643   -1.20082995751395    4.04170596107050
C         0.06755046496556   -1.11991585473739    3.16539035181449
C         0.46717865286311   -2.50966850825570    3.51315640442098
C         0.92802006014530   -0.09796085655976    2.65299389765212
C         2.39077155741519   -0.20917545739071    2.39629823982612
C         0.20750493514142    1.16011351773726    2.69875126622569
C         0.85161203054577    2.48762562436712    2.47611440557750
H        -2.22189067964875    1.90706120120288    4.62950274653109
H        -3.13491570126365    1.57768679565228    3.16170957598381
H        -1.92288534745985    2.86774240579954    3.17986797891816
H        -3.31751722468575   -0.74727418455388    3.72244519010976
H        -2.41016237948986   -2.26235073795322    3.81116467804880
H        -2.30581674638696   -1.09140221539549    5.12398499822644
H        -0.36633183692097   -3.20049203828927    3.41991774252084
H         1.28500753574318   -2.85719927281792    2.88775272109055
H         0.80437123727078   -2.52469870803218    4.55034134576567
H         2.67211357684414    0.38409799799668    1.52943649106823
H         2.68624108131332   -1.24072078222256    2.22860992937445
H         2.93862796669858    0.17230041872404    3.25874540591248
H         0.13983989471575    3.30011443269190    2.58181621293252
H         1.29781487673371    2.53673584662209    1.48423435653678
H         1.64842512152893    2.62450641941360    3.20670646549345
F         3.06569004661926   -5.84467460731235    0.29251822353472
C         2.08070008479463   -4.92180998512400    0.29107888077320
C         2.38011381350017   -3.61673197245975   -0.06453075554107
C         1.37170373793501   -2.67270999726779   -0.05400495963483
C         0.07064799186816   -3.03729155305204    0.29429162519391
N        -0.94297745048287   -2.07007773167288    0.31430624629290
C        -2.12510134916414   -2.35470108146286   -0.11319896168975
C        -3.16548900515834   -1.37043397100361   -0.00184472160461
C        -4.49194635290199   -1.73139851958343   -0.15485706365405
C        -5.45872522982063   -0.78085576967421    0.17630486953887
C        -5.06053468097461    0.50389235303439    0.41523362506585
C        -3.68639324949159    0.87996589119381    0.28173103954956
N        -3.37047270337742    2.17104377415283    0.14719985817196
C        -2.00716829127994    2.65131993086389    0.02353354880098
C        -1.92210058277999    4.12685220133848    0.39361179915213
C        -2.69696740521820    4.98385711937591   -0.61105832750746
C        -3.86911183400190    4.17667618027531   -1.17352871040451
C        -4.39193240002265    3.17044043772052   -0.15000836283671
N        -2.75063403040946   -0.10607858165591    0.29069814206186
C        -0.20436199976447   -4.35932241987661    0.65577057683740
C         0.80187444588446   -5.30593425221798    0.65892979177971
H         3.38796023356411   -3.35412542159244   -0.34310376369544
H         1.57449420605406   -1.65250266577289   -0.33864477726603
H        -2.35225126838145   -3.31438500818677   -0.56558898363140
H        -4.75702226562838   -2.73538426194274   -0.43640149020980
H        -6.49887830853837   -1.05646612453667    0.24469379758634
H        -5.78169423907345    1.23885176960235    0.72689419861149
H        -1.36609493628495    2.06334925988197    0.68041148776095
H        -1.64483177495425    2.49992895976010   -0.99822771851919
H        -2.33321512864574    4.27010688256103    1.39375660975057
H        -0.87476348593713    4.42512812561976    0.41450640269304
H        -2.04529085458775    5.29403077817663   -1.42802250979041
H        -3.05766612477614    5.88795669748408   -0.11943680634782
H        -4.68554875856298    4.83895475394718   -1.46140671646062
H        -3.55858726212703    3.63328995875988   -2.06690895940938
H        -5.26749400332684    2.68405587663383   -0.57884637000829
H        -4.68634673275550    3.69050198991783    0.76730134982765
H        -1.19977063090334   -4.64071382794986    0.96305363088976
H         0.60886832331683   -6.32749283781126    0.94426190426217
Cl        0.31633091851349    0.48056107006646   -0.76326414888201
