71
 energy: -108.157914469947 gnorm: 0.000439538634 xtb: 6.4.1 (afa7bdf)
Ir       -0.17338510036617   -0.49808300296848    2.19130902094642
C        -1.93416022797682    1.18336719201410    4.68814674914952
C        -0.66806967526959    0.59481823266709    4.17955198423195
C        -0.26998517746135   -0.76691865539790    4.41266808145718
C         1.09867006379462   -0.90631243828800    3.99410466182667
C         2.02240858844792   -2.00401778920913    4.39195561579991
C         1.49825975178929    0.32893816402095    3.38488342952936
C         0.39802053363024    1.26709737761518    3.51117640550758
C         0.52174748709277    2.71746220743556    3.30519496174138
C         0.29291741298355    3.57597873715891    4.37968812000940
C         0.45176108932446    4.93891238828876    4.23147713502275
C         0.84553430243685    5.48474396219486    3.01151048817684
C         1.01500564581353    6.93726292350257    2.85757269056096
C         2.10980501304997    7.45431063821780    2.16824585717316
C         2.27031482618629    8.82049669813190    2.02643243475268
C         1.33579048584229    9.69114924631903    2.56321655363112
C         0.24168212266027    9.18724662880796    3.24787755733656
C         0.08392622411810    7.82169926992936    3.39825014971487
C         1.07591111934236    4.62198703584670    1.94143667184190
C         0.91571334206715    3.25883402258546    2.08403044591647
C         2.88401319602821    0.68510412615977    2.98062557807341
C        -1.04032809575762   -1.74637967724884    5.23117373105117
H        -1.92259014425399    1.13911560652111    5.77783794101220
H        -2.80044697395943    0.61711593460780    4.35145525214553
H        -2.04222874592130    2.21743808199390    4.37741803307242
H         2.57089965555990   -1.67371670285780    5.27561011586439
H         2.75252212250160   -2.22675190506008    3.61888217803463
H         1.48397883674213   -2.90958201024397    4.65510636876075
H         0.01924501429606    3.17291772205365    5.34241319337719
H         0.28895927069841    5.58981056574719    5.07727753778610
H         2.85000091149985    6.78209521242768    1.75897815408369
H         3.12778960229026    9.20909280494679    1.49591033039761
H         1.46031573488616   10.75799018269180    2.44865585762586
H        -0.49170994252836    9.86256783361535    3.66446944166496
H        -0.77957170523162    7.43511006774394    3.91982286387081
H         1.36191944937240    5.02827376742501    0.98262301897432
H         1.06451279656043    2.60999279661696    1.23471817508824
H         3.45246489044252   -0.19557241954913    2.69692018398082
H         2.88272200930922    1.39077952974257    2.15519359484236
H         3.38028794870667    1.16092802938178    3.82738126824445
H        -2.10956756974941   -1.61146165939316    5.09579954276637
H        -0.77889105601245   -2.76979573084042    4.97759343314634
H        -0.81084240794770   -1.58837577922074    6.28569091484026
C         3.67392171342871   -5.24130512020334    2.60894917742285
C         3.70167938505252   -4.16950294019539    1.83751556181934
C         2.99016493221729   -4.04656966447030    0.52707898285412
C         1.90492134349687   -2.96518591016265    0.54562046817593
C         0.74261479056439   -3.36768632761605    1.46754821837136
N        -0.29998977019131   -2.37699164196960    1.40738765385231
C        -1.35944705696823   -2.65709027496169    0.72922671604002
C        -2.33174862856164   -1.62739162498557    0.52111078948224
N        -2.05397563637702   -0.43693724452554    1.10478331244578
C        -2.83468689910667    0.59973070219845    0.80920556271205
Br       -2.36634582750249    2.29298791633864    1.47969991376970
C        -3.96885939909718    0.50282158651298    0.01102994677235
C        -4.30207733883953   -0.72023555897219   -0.54897438146586
C        -3.45459583358931   -1.78345406860983   -0.29994832229873
F        -3.68671523001208   -2.97894809389123   -0.84901201746203
H         3.12103719464094   -6.12378729412421    2.33082630227175
H         4.21184255710665   -5.29083709857983    3.54017419378052
H         4.28017863032078   -3.30232235164902    2.13062888433021
H         3.71833882838421   -3.77613024163214   -0.24152348227871
H         2.54973386579406   -5.00637979760833    0.25200890475550
H         1.51864063716448   -2.82275541325091   -0.46446728111689
H         2.32175638633764   -2.01330418365095    0.87668306488068
H         0.35477300611817   -4.34008004668351    1.14784488311658
H         1.11086495708583   -3.45367634828961    2.48938549519836
H        -1.51134480835587   -3.62831525284835    0.26836459319143
H        -4.57357200771023    1.37773194637180   -0.16508323182369
H        -5.17331749748482   -0.84336880124307   -1.17257155421454
Cl        0.63645508102844    0.24806893257437    0.07449592238269
