70
 energy: -102.127371236517 gnorm: 0.000651713809 xtb: 6.4.1 (afa7bdf)
Ir       -0.60404589064685    0.36404269637811    1.81255380874306
C        -1.32581868882803    3.23236372234929    3.43254018564498
C        -0.59746136030292    1.92798901389694    3.42011513388907
C        -1.06874748099910    0.72546790535583    3.95782623898786
C        -2.36161007045074    0.48936614462363    4.66141484860405
C        -0.01152375980676   -0.27660000371407    3.84186493977469
C        -0.06659506890934   -1.62856905625625    4.46555580724961
C         1.08764417060035    0.32540812360811    3.21235168147131
C         2.43745872621560   -0.28477676864662    3.01664010288902
C         0.90114539583412    1.83425117570608    3.20036439294583
C         1.85068149257581    2.58286974721971    4.14855476112587
C         1.84865289002988    4.10489045380445    3.99401205033330
C         2.90966464693739    4.71404776840767    4.90898759301456
C         2.63601591956065    4.34690083199145    6.36476988256603
C         2.59201268846190    2.83076718098203    6.53098978462406
C         1.54555622804606    2.21507979959217    5.60477790147194
H        -2.39594331958900    3.08537759099281    3.31415995883249
H        -0.96726259385319    3.88240015173759    2.63795792005152
H        -1.17289650015733    3.73747729716929    4.38679014408611
H        -2.80157554408695   -0.45964608517291    4.36718064237853
H        -2.17306710516415    0.45253384420092    5.73426695769296
H        -3.07302273135571    1.28568251712634    4.46818253252246
H         0.03950817349612   -1.51558892510176    5.54503648501635
H        -1.02015816041761   -2.11425374308112    4.27646868173501
H         0.74105871725811   -2.25842561342932    4.10662696227765
H         2.35580729560503   -1.32531654143184    2.71449566925492
H         2.99216856806052    0.25567973134864    2.25291573653908
H         3.00573293598565   -0.24492024354081    3.94677904912965
H         2.86135864126085    2.23325365911288    3.90904210782559
H         0.87827313049450    4.51578599657691    4.26782808463418
H         2.05859449716981    4.38150409338364    2.95983837444322
H         2.91051621983377    5.79962660239860    4.79348126768267
H         3.89841284672475    4.34916756893204    4.62121191795714
H         1.68050741413847    4.77626696803328    6.67489497041356
H         3.41213775815859    4.76864930540023    7.00620716674655
H         2.35906000165256    2.57633141571050    7.56670160196904
H         3.57510280767795    2.41435706492954    6.29952921164884
H         0.55780048318073    2.58964941595497    5.87814061570339
H         1.54209696011770    1.13113876445930    5.72790564014067
C        -6.31903038730918    3.15908150796081   -3.65239649859203
O        -5.46886265248015    2.72396025251688   -2.59300546431292
C        -4.49672170069870    1.86962253008847   -2.90011535435960
O        -4.29539261950215    1.43302276718859   -4.01080672304203
C        -3.67625340033796    1.50339251673318   -1.71185278872637
C        -3.89906167543677    2.05638524986016   -0.44374222953281
C        -3.08657194706997    1.67488128486115    0.60189686202495
N        -2.08919570619844    0.79388597854924    0.47961739462497
C        -1.87701940966614    0.23687395496670   -0.75213629930474
C        -0.82273524112426   -0.72494108745862   -0.77438746474063
N        -0.21555879346320   -0.95518475246402    0.35807850533319
C         0.81276499299691   -1.91545343467395    0.38678927983545
C         1.91094492375596   -1.81445443202634   -0.46400529333056
C         2.91245129888035   -2.76708026138686   -0.40778638018979
C         2.81606017176302   -3.83186568203473    0.47441036273482
C         1.71493065885301   -3.94042621226711    1.31079261850596
C         0.71810545698807   -2.98284265884475    1.27719664892240
C        -2.65165290779273    0.58249729043348   -1.85850562889563
H        -5.81048871922794    3.92044000536011   -4.24625599011490
H        -6.57908080275881    2.31922261407070   -4.29829104608716
H        -7.20377023200444    3.57451607380646   -3.17847193487641
H        -4.69392656619434    2.76664913709561   -0.29277423141016
H        -3.24244692883030    2.08479366551231    1.58786733514783
H        -0.57164433391856   -1.26642689129265   -1.67819155955561
H         1.98427439460151   -0.97870670131012   -1.14302308829695
H         3.76843045995922   -2.68076043454308   -1.05932712173919
H         3.59482243541681   -4.57783903529229    0.50727794752668
H         1.63299142465170   -4.77642672472173    1.98816949662936
H        -0.15392029587005   -3.06326522832049    1.90606914908947
H        -2.45991153062796    0.14151753773533   -2.82373675300465
Cl        1.22086129838428    2.37585359873087    1.46712943759043
