75
 energy: -128.411173469982 gnorm: 0.000523498456 xtb: 6.4.1 (afa7bdf)
Ir       -0.22397286386001   -0.78570284650485    1.39931436511443
C        -1.54673859900634    1.48731585188153    3.60048105275125
C        -0.35112368221395    0.77372013958633    3.06943435522854
C         0.17110054402798   -0.46585678647416    3.57974627341202
C        -0.35113467618635   -1.21311338758393    4.75801738885820
C         1.43595045077821   -0.70796023786237    2.94172013534280
C         2.41391018016585   -1.74516947741315    3.37070148939953
C         1.63319149556850    0.29103728857808    1.94837155843318
C         2.88408365632869    0.52597984036424    1.17201022310812
C         0.52025375579330    1.23261374933458    2.04383704329905
C         0.49328826872556    2.57151161160076    1.43032478666222
C         0.46641507456409    3.68633205310171    2.26776801307885
C         0.48025899753199    4.94949942247628    1.70808124437495
F         0.45769007244125    6.02150440489036    2.52842824142819
C         0.51569934131809    5.15903797037021    0.34132063402045
C         0.53871924852785    4.03243244892377   -0.46236472860937
F         0.56900665016692    4.19897162737713   -1.80090437181983
C         0.53160245252776    2.74926789208804    0.05019233527251
H        -1.86124057092413    2.27761509001069    2.92392290606178
H        -1.29490012715216    1.93772856676565    4.56133125702061
H        -2.37373283303981    0.80078401133917    3.76795242705960
H        -0.40951980665804   -2.27792486015114    4.54297702564135
H         0.32163763761108   -1.07288581095687    5.60374997943663
H        -1.33935513070168   -0.86182928300246    5.03675977076532
H         3.02838167012503   -1.33405691585494    4.17251626294779
H         1.90042019284630   -2.62340520347840    3.75224509233919
H         3.06903353434453   -2.03980112175791    2.55585261122754
H         3.42080936653157   -0.40436848172745    1.00941709568530
H         2.66691494521358    0.98129001886795    0.21013349317649
H         3.53021147387604    1.20446930200631    1.72979920829800
H         0.45559432833348    3.58152236778084    3.34011833937983
H         0.52588420183866    6.15149238883746   -0.07719904781027
H         0.52224778723889    1.90352260571604   -0.61915093039280
C        -0.82981439154363   -6.74352322966592    4.13447567414630
O         0.07691570728833   -6.28592983809319    3.13026215629453
C         0.07165909181746   -4.99277711632745    2.83332351528024
O        -0.66733468818615   -4.17936713324383    3.34490824157344
C         1.10452880861929   -4.64870381708565    1.81730643422287
C         2.27378191813131   -5.40003826218878    1.75768556102103
C         3.30849979068436   -5.03998258869533    0.89618035571702
O         4.46769493013146   -5.70393475812515    0.76389923186519
C         4.68457268264047   -6.88265420001980    1.52070845398219
C         3.16047906510073   -3.88872749781802    0.10728747345588
C         2.00992679927489   -3.13968100029089    0.16575731163597
C         0.95785353601180   -3.51330398677539    1.00647974649217
N        -0.21997297535761   -2.75759953618175    0.99320849191368
C        -1.35328808990964   -3.30023356561298    0.68206776255827
C        -2.49500498470944   -2.44336717569657    0.67039935711208
C        -3.78350961085939   -2.82510517302045    0.28133656320745
C        -4.78679199316234   -1.88588637497776    0.24601850294600
C        -4.49425774232230   -0.55646342314540    0.59536526057185
C        -5.48720895173039    0.48199332222865    0.56016138829399
C        -6.82930779262539    0.45562979529776    0.23617702680936
C        -7.29631887796805    1.77560583709323    0.37310158713511
C        -6.21762548008367    2.51643022153876    0.76849586559257
O        -5.12989726200035    1.75075768194703    0.88473488674067
C        -3.18134342928303   -0.25854620889473    0.98663913811529
N        -2.22050101322083   -1.16374623446823    1.03174277686639
H        -0.35622136783724   -6.66317647798599    5.11407619268831
H        -1.04367603453605   -7.78384630541449    3.90385593883138
H        -1.74085739201505   -6.14402557864704    4.12233027724656
H         2.35748534113079   -6.25805192092162    2.40345308565995
H         4.68472040940443   -6.66897683933086    2.59247357536341
H         5.66782631682683   -7.23997749120527    1.22204228392550
H         3.93471612920139   -7.64333014180976    1.29103062586046
H         3.96862162469856   -3.61219965968286   -0.55009742242614
H         1.88775274203769   -2.26759786736351   -0.45795902957814
H        -1.42788098765603   -4.34439428738245    0.40190483004992
H        -3.96937144328707   -3.84961685791572    0.00251812005559
H        -5.78366518063215   -2.15972821849575   -0.05675091789134
H        -7.40887436196421   -0.39363351762765   -0.06037985326053
H        -8.29194704988134    2.12862567198554    0.20287760789744
H        -6.11175004743553    3.56038096541959    0.98899548408925
H        -2.92507902258634    0.75482352059105    1.25819799619784
Cl       -0.11576375888984   -0.48716797115223   -0.96814208844631
