67
 energy: -103.542566592293 gnorm: 0.000775325078 xtb: 6.4.1 (afa7bdf)
Ir        0.11579711347354   -0.87982209550511    1.39926107741049
C        -2.38741095263923   -0.17721334286989    3.54043696782692
C        -0.92131176317885   -0.25796884634577    3.29064564936596
C        -0.09699945721169   -1.38850326521786    3.58260495711372
C        -0.56126755310316   -2.63976865715081    4.24406501271017
C         1.27222658426567   -1.02158732239669    3.32332434826380
C         2.48533948669225   -1.78928960499426    3.73250334934470
C         1.29236058631080    0.34284344869214    2.89663467343919
C         2.51756958034139    1.16417794585854    2.71374488088439
C        -0.06748252664295    0.80643469527625    2.82656472133674
C        -0.45944827145536    2.20337741726976    2.59406927579695
C        -1.23830583721955    2.87524972665986    3.53504530345201
C        -1.56237558227336    4.20030324675472    3.31472885043263
F        -2.31272043834500    4.84353711719192    4.23281946502231
C        -1.14889273783217    4.89510507431923    2.19143052035719
C        -0.37546167817098    4.20169601821671    1.27699195425238
F         0.04466935200798    4.84259803271038    0.16729239006984
C        -0.02390335384125    2.87690918415890    1.45307652273675
H        -2.82805939963171    0.67721477376273    3.03464707371178
H        -2.56329351913250   -0.07483920123607    4.61195654488846
H        -2.89175993473178   -1.08337299371266    3.21275859835575
H         0.09453660390973   -3.47687982854850    4.02414196839599
H        -0.55966958243274   -2.48647674815443    5.32382242140091
H        -1.57361478335886   -2.89332485035926    3.94286741885804
H         2.79376635679337   -1.45772062770668    4.72498893481163
H         2.28783344547232   -2.85577930824565    3.78631345273638
H         3.30816779098207   -1.60854318812700    3.04611294632619
H         3.06170855869712    0.86336071394482    1.81921708978046
H         2.26497182689530    2.21699667427163    2.62050624029003
H         3.17854186141607    1.02626733761342    3.56814722437987
H        -1.56720313079888    2.39254090318215    4.44020812903339
H        -1.41344871216393    5.92823157358030    2.04042299152404
H         0.56785141724680    2.37524040593155    0.70299578565336
C        -0.62187019404000   -2.82379697443673   -0.53796997300791
N         0.15518813659267   -2.69371759503262    0.48440432551615
C         1.00688118623413   -3.81417313069687    0.83131376855639
C         2.21677244633652   -3.94823043523397   -0.11008029909867
C         3.35866981694009   -2.99886405431609    0.26587711291059
C         4.43989063212465   -3.04856673616412   -0.77781156129522
C         5.48047320697373   -3.96408801880648   -0.68434485235924
C         6.45491268691531   -4.02600788206590   -1.66539338173419
C         6.39860938495308   -3.17251847542466   -2.75477758742636
C         5.36416317755660   -2.25680979074321   -2.85703659103781
C         4.39082430358451   -2.19808836006000   -1.87540094435558
C        -1.48201779295180   -1.72171242580377   -0.86545220241469
C        -2.33268978146539   -1.67526596157938   -1.96934803754157
C        -3.11561743894903   -0.55194474128563   -2.16314789003575
C        -3.02341648010586    0.49367636729038   -1.25107710364745
C        -2.15063044729275    0.38366258463237   -0.18226075093536
N        -1.40200650970114   -0.69624966815874    0.01602152108596
H        -0.64743352068796   -3.73499674563801   -1.12613408865776
H         1.36172529520059   -3.68294439661045    1.85228001294683
H         0.41291771717036   -4.73054552493551    0.77370887035609
H         2.57776273101162   -4.97641050216381   -0.06666271634051
H         1.90435293398559   -3.74384553001237   -1.13498017177111
H         2.96834399227661   -1.98314920500142    0.33371642013449
H         3.76860239853680   -3.29263892453726    1.23280934993727
H         5.53388882484272   -4.63145355405477    0.16418316457068
H         7.26170635658671   -4.74007660805067   -1.58105121400159
H         7.16012406004549   -3.21888190775195   -3.52000358536943
H         5.31911184400742   -1.58628293367678   -3.70356357554558
H         3.58914179988842   -1.47800099133330   -1.95423394837740
H        -2.36100494832078   -2.50531719306910   -2.65665371986897
H        -3.78272489807406   -0.48539431336653   -3.00799242678886
H        -3.61818099658550    1.38509145182983   -1.36404523569921
H        -2.04737046000256    1.18731754885727    0.53206697994042
Cl        1.41273518613147   -0.01828578147257   -0.39812840870058
