70
 energy: -95.353680199697 gnorm: 0.000149660331 xtb: 6.4.1 (afa7bdf)
Ir       -0.57760928278220   -1.07874728127767    1.51364182829059
C        -2.62045647120263    0.74107962360474    3.61275254095450
C        -1.28341772122959    0.18406972074865    3.26214174041946
C        -0.83058890278423   -1.09470516364524    3.74748066153280
C        -1.61915113101756   -2.00020260135245    4.63186160301166
C         0.58796465168780   -1.17868597854298    3.52184678501631
C         1.51070538299183   -2.12452216534346    4.20878661203349
C         0.97474653825613   -0.03794256016958    2.76590543579249
C         2.37503922834755    0.35367127300983    2.43135909013292
C        -0.19215270764729    0.82034319754634    2.60076384227657
C        -0.07394334818923    2.23656483020743    2.10808188537104
C        -1.10322722090548    2.66421688865462    1.05736815523314
C        -0.77927316781225    4.07551938830489    0.57379421657202
C        -0.79419798040642    5.05793561299808    1.74268381300720
C         0.19546522017171    4.62534137723529    2.82156584111851
C        -0.10943669631956    3.20831879983735    3.29961801399237
H        -3.41613629201487    0.02356602813372    3.42315159464508
H        -2.83489059106780    1.66386271403127    3.08587170045873
H        -2.62465839482484    0.95503113690777    4.68279455870887
H        -1.28424617331779   -3.02963500199404    4.54081615474283
H        -1.48817234065309   -1.69034504574525    5.66934922750973
H        -2.67843886399166   -1.95618547006162    4.39678716695060
H         1.90552538615060   -1.62037708618515    5.09280577769680
H         0.99186403464011   -3.01819979452403    4.54131723142707
H         2.35522284524287   -2.40086126058235    3.58459467794336
H         3.06449682557000   -0.46832846164735    2.59849798451608
H         2.45447514955606    0.66788662818004    1.39238202025175
H         2.67673183848359    1.18966026926181    3.06255286858988
H         0.90697473887417    2.33027086435465    1.63272909549866
H        -2.11048629423668    2.67011850518605    1.47456041312323
H        -1.07277871263463    1.96802051254877    0.21786960370071
H        -1.50768850506502    4.38398520431140   -0.17878007538106
H         0.20594604204049    4.08359328309899    0.10172930020754
H        -1.79996680930537    5.10279380153548    2.16774111000919
H        -0.54105943597625    6.05931389531501    1.38869205383832
H         0.14746061239364    5.31496116866764    3.66681354001488
H         1.20965675852498    4.66537223341632    2.41740060281917
H        -1.09468444766709    3.18879252386799    3.76644219722224
H         0.62387184824803    2.90382735998462    4.04877600372429
Br       -5.72548014230199    0.97125355511242   -0.38640330846477
C        -4.42272301060319   -0.41582979782041   -0.37945911870458
C        -4.58041860746104   -1.54780550294214   -1.17769477942618
C        -3.59933112735138   -2.51470993594666   -1.12126287172707
C        -2.50534374964244   -2.33600823377999   -0.26982295802387
C        -1.40215441180925   -3.24269037524392   -0.18203612115805
N        -0.42230710132801   -2.96040983833488    0.60800007348634
C         0.69363292058560   -3.88364090386487    0.61292439363383
C         2.03998656699672   -3.14860991745762    0.57607815379980
C         3.16497844299463   -4.01670075941391    1.15157122398220
C         2.88746237909381   -5.49437693916501    0.89582151304252
C         1.64100144911456   -5.94577206944428    1.66996104328093
C         0.62738025439002   -4.80554813996139    1.83726771846588
N        -2.37950262863746   -1.23655448147358    0.51072082265893
C        -3.31216959651045   -0.29453034063363    0.44266156111978
H        -5.43856818675247   -1.65331395762778   -1.82219681201178
H        -3.66248575472654   -3.40181468999798   -1.73068913865373
H        -1.39085018813397   -4.12678436118612   -0.81163047485745
H         0.61315754634935   -4.51816931101219   -0.27784697052683
H         1.95521573692789   -2.21399322448236    1.13130334976564
H         2.25994721061828   -2.88570652826419   -0.45872417722781
H         4.11178388452916   -3.72831062102428    0.69450333069508
H         3.26211796924907   -3.86660518959383    2.22734673210853
H         3.74610951922071   -6.09378683161330    1.19991767993541
H         2.74887428877866   -5.65024857893140   -0.17545758969925
H         1.93092415261413   -6.30185634630273    2.65917912148710
H         1.17768888957126   -6.78292760173937    1.14605487586246
H         0.84944764447509   -4.22419136636836    2.72738754978936
H        -0.37881440339870   -5.21315164349000    1.93762775085278
H        -3.18183523940786    0.58721968189331    1.04884602343059
Cl        0.25559468205169   -0.29620271973688   -0.58466247025707
