62
 energy: -105.509735738278 gnorm: 0.000837601025 xtb: 6.4.1 (afa7bdf)
Ir        0.14453411089988   -0.89327938957135    1.56121065008605
C        -1.50662835761635    0.41261978930854    4.17052492578857
C        -0.20314237773915    0.18586062575163    3.48484046936629
C         0.69240142896423   -0.89875928924214    3.73581575784960
C         0.51044391752742   -1.96971762300273    4.75404684625952
C         1.89257073336095   -0.67685267648789    2.96912596982684
C         3.16985056896638   -1.43006764389551    3.12824950707236
C         1.74879358637631    0.55564777195920    2.26385625373240
C         2.82126926138225    1.24686953790233    1.50130405360162
C         0.43074261440623    1.06963350508079    2.53472034066248
C        -0.04294294982139    2.40020995350174    2.12691241212368
C        -0.48389021326280    3.31042823389336    3.08596177480699
C        -0.89000220540755    4.56790053976650    2.68062958831664
F        -1.31178101178087    5.44254933880721    3.61590663073829
C        -0.88273607143644    4.96474723403554    1.35492518789351
C        -0.43823334549557    4.03909131799148    0.42652520044816
F        -0.41966218726910    4.38902814460036   -0.87495447387292
C        -0.01962357574820    2.77099169999134    0.78207868741013
H        -2.10479761402739    1.15012300379762    3.64327146137326
H        -1.32117651462519    0.77512419503747    5.18191014385094
H        -2.07357130262536   -0.51160809439819    4.25217503005469
H         0.94541898338286   -2.90724471329233    4.41648861791006
H         1.02155840371502   -1.67514549221507    5.67068284679135
H        -0.53956528515608   -2.12045815182503    4.98409036777760
H         3.72307348409542   -1.01345214980148    3.97084676375080
H         2.98756599778147   -2.48148124350198    3.33092804386595
H         3.78661907346335   -1.34357708976883    2.23911360955949
H         2.96527933719913    0.78469771772086    0.52488321924787
H         2.56673865942245    2.29192175745249    1.34583766460488
H         3.76080773102302    1.18100568865127    2.04657036045125
H        -0.48702354325487    3.06529906302756    4.13491095011262
H        -1.20284779004624    5.95006294455420    1.06005612161112
H         0.30457098086946    2.07819850463670    0.02065812413766
C         0.04472353100648   -7.41093497084091    3.53890366457489
O         1.33535199332890   -7.11682737148865    3.03319458975437
C         1.52816818451341   -5.96882284761177    2.36168309740887
C         0.56163503341456   -4.99851217880064    2.11625259829719
C         0.88854257684254   -3.83510712575224    1.41526125365884
N        -0.09776064689775   -2.86956217385498    1.15934464119460
C        -1.22613390955382   -3.22331590888722    0.63124861055724
C        -2.18455935537008   -2.18379717182837    0.39166054887281
C        -3.41772873821450   -2.36916841071439   -0.23358766962696
C        -4.23954128219076   -1.27443565923507   -0.43035154325194
C        -3.80321604255881   -0.02479211706028   -0.00400262623005
C        -2.56458520156590    0.08795864798282    0.60482186061240
N        -1.77477750045638   -0.96096436064203    0.80996030097350
C         2.18022860994001   -3.62201445629691    0.94709619040538
C         3.14694518657468   -4.58889417718309    1.16489538415619
C         2.82230022881863   -5.73286645561008    1.86279723121487
F         3.77428466931423   -6.66260339099148    2.08040757889594
H        -0.68934163950899   -7.47469572584839    2.73203666634594
H         0.14109742643088   -8.38293464420492    4.01848689469109
H        -0.26716404588467   -6.66930875977154    4.27770673153924
H        -0.44306494692883   -5.12241466708458    2.48630643211813
H        -1.42483500998013   -4.24865469470239    0.34234071243289
H        -3.70684780892758   -3.35485020526398   -0.56072003525349
H        -5.19900363361972   -1.38645825402793   -0.91014881808651
H        -4.41165074690994    0.85401835555337   -0.14104139795165
H        -2.19401794971334    1.04802184471596    0.93358285751883
H         2.40306854241332   -2.73022132332333    0.38490292503757
H         4.15275123141716   -4.46642096663623    0.79773331762026
Cl        0.79287771653572   -0.62068884108009   -0.70781810456968
