72
 energy: -106.666548407037 gnorm: 0.000768910163 xtb: 6.4.1 (afa7bdf)
Ir       -0.69572203127470   -0.86468357155288    1.07529294088763
C        -1.80522370608523    1.43002952088024    3.43485846773105
C        -0.82402831085273    0.40828791335726    2.97100268100477
C        -0.94077865221667   -1.00181491443965    3.28800077942660
C        -2.04747349868976   -1.59160015210860    4.09509387440368
C         0.29974669853942   -1.62829235822697    2.96706946504493
C         0.71948393656766   -2.99601631658195    3.37254981461794
C         1.11912465996603   -0.65943877000069    2.30317767834592
C         2.54076067827019   -0.83590774554326    1.89694083883250
C         0.43828865849880    0.62094582299464    2.36177988381344
C         1.08558029505624    1.91707629047273    2.00587248165320
H        -1.87236465446541    1.37937501245022    4.52175369918163
H        -2.79881771688511    1.23995112740709    3.03385741753623
H        -1.49244347577287    2.43043675810540    3.15551014001054
H        -3.00074127368368   -1.13767187809884    3.83772241450517
H        -2.11656435918291   -2.66560438154533    3.94648134149117
H        -1.86008854600602   -1.40823938479803    5.15392797681122
H        -0.12923609865222   -3.66971022291203    3.45013136065289
H         1.44476263855575   -3.41430300029082    2.67991840521706
H         1.18901934955848   -2.93147267396327    4.35518171445630
H         2.76696045670165   -0.22259886366135    1.02860705588169
H         2.75390854403052   -1.87434905023087    1.65965570668769
H         3.19283270024072   -0.52525574654336    2.71387780363454
H         0.40917693537231    2.75311733644136    2.15230286569552
H         1.41499171474406    1.91102412933261    0.96839037794158
H         1.96328846670014    2.06260410819957    2.63503974703846
C         4.49430027279922   -6.38494666917241    1.35872332533902
S         3.39049241723289   -6.78786552304498   -0.02121690562508
O         4.09974880901026   -6.58456870815944   -1.26234322119306
O         2.81731986723703   -8.09390679954752    0.20791646237333
C         2.07633599425815   -5.56202124504484    0.09275011637087
C         0.87774478008707   -5.90778557770734    0.68891922299923
C        -0.13756196223789   -4.97276534564771    0.77225306554453
C         0.05844972436694   -3.68693925465234    0.25900395230146
N        -0.95613902502700   -2.72243321996609    0.33033866015482
C        -2.18316958431494   -3.05064956472610    0.10179213189191
C        -3.19605294750764   -2.03563635966535    0.11365492114664
C        -4.52497635133331   -2.38174747656526   -0.05154864566695
C        -5.47147844395335   -1.35688848440005   -0.04101930572371
C        -5.02299176916966   -0.06775328435347   -0.06653845348877
C        -3.62590760696242    0.23822038713626   -0.07509646188896
N        -3.26670044643114    1.49125565162182   -0.38366891033397
C        -4.06585946326972    2.30360450826907   -1.29235597159750
C        -4.37172943988489    3.66985771522087   -0.68689870825008
C        -3.05523199572878    4.38044312653552   -0.38866647966216
C        -2.20432022400068    3.48905494313388    0.51023427229026
C        -1.98732820495055    2.11117196717417   -0.12191372514115
N        -2.74370376919734   -0.75042752090838    0.21677556064962
C         1.28001233669155   -3.34714132119410   -0.32539354520406
C         2.28584314970115   -4.29218636244027   -0.41474000977637
H         3.93594840093746   -6.50492778555570    2.27777455810438
H         5.32433427566997   -7.08011220060982    1.32430283756975
H         4.84481386251730   -5.37007009586425    1.22550429625245
H         0.75666377247323   -6.91045407911174    1.06658223994328
H        -1.06934055938294   -5.23079092916469    1.25098470145039
H        -2.45734174119757   -4.06071394047348   -0.18381732623430
H        -4.81033760781192   -3.41551198722129   -0.13973180331086
H        -6.52666829687306   -1.57796350406709   -0.02600176821249
H        -5.72683954099587    0.74670867864772   -0.03973435026111
H        -4.97548899404222    1.78569932196045   -1.58632531624707
H        -3.46469274152276    2.44856117295788   -2.19869767428118
H        -4.94621374506076    3.54986673419015    0.23324025472851
H        -4.97103379103122    4.24983783216393   -1.38901661851509
H        -2.52627279648526    4.57814219051878   -1.32318907907913
H        -3.24036314283487    5.33817649315216    0.09952929454629
H        -2.71442436081324    3.37331869104633    1.46714553178468
H        -1.23377531132275    3.95308009517524    0.68454040456107
H        -1.42942618326379    2.21450337770386   -1.05795272436562
H        -1.40765413889697    1.47310385229085    0.54277335359574
H         1.41286995717019   -2.35439977458991   -0.72696922005725
H         3.22585215307740   -4.06359915102892   -0.89059308933416
Cl        0.16550400322103   -0.20188256315297   -1.05162978265970
