78
 energy: -122.192851658191 gnorm: 0.000354016586 xtb: 6.4.1 (afa7bdf)
Ir        1.20836247887887   -0.88117969536597    2.33095334588698
C        -1.23714916189873    0.98425880950695    3.69491329621431
C         0.05285636944597    0.25691983196944    3.80471836590067
C         0.21641500868332   -1.06093055294360    4.35369429557699
C         1.60853872432620   -1.30819613941092    4.51216441023257
C         2.24325515383264   -2.49092208813866    5.13379049664246
C         2.33689235409747   -0.13202172287392    4.06728734817060
C         1.38206852232108    0.84939538326093    3.64459310886900
C         1.65381876737390    2.24583344324012    3.29313337527307
C         2.44940905708647    3.02999087499321    4.12860202075802
C         2.67550206500676    4.35821903602586    3.83019217959898
C         2.13534091862519    4.93853865497250    2.68293103699808
C         2.38739868476440    6.35079895199464    2.36447049671590
C         2.64505531799398    6.74928068784188    1.05376288602412
C         2.88864010512230    8.07794990298922    0.75826669862799
C         2.87073323972460    9.03073363506597    1.76425457480237
C         2.60976150750747    8.64615848125432    3.06964256866362
C         2.37366674189707    7.31711943255387    3.36913655765137
C         1.35318995376786    4.14541778008327    1.84296578578993
C         1.10857582262614    2.82259239687043    2.14587277390942
C         3.80836326864747    0.02212083914260    4.15741034814574
C        -0.89362039110995   -1.93521168832959    4.82753128616828
H        -1.60810916236500    1.17137855284149    4.70420696049908
H        -1.99028714639376    0.39527710059959    3.17556223197373
H        -1.10840504824603    1.94028719793654    3.19612199529581
H         2.85739575605839   -2.16873094415286    5.97404721993371
H         2.91128463049451   -3.00090785964948    4.43434586673099
H         1.50160180733017   -3.19965370929336    5.48824607282832
H         2.86609537263463    2.60356548520348    5.02678722772244
H         3.29692373820705    4.95107837123545    4.48355011828795
H         2.67965447079319    6.01113869458961    0.26613629143549
H         3.09539333385650    8.37250157142543   -0.26025525848246
H         3.05897898518973   10.06856008433365    1.53198186177312
H         2.59019311593772    9.38604557381117    3.85638769296261
H         2.15367988090552    7.02860629916020    4.38635218376124
H         0.92365123695813    4.57792891744173    0.95269323783667
H         0.53051303114849    2.21317125002093    1.46675340749295
H         4.30384043400015   -0.91113376163624    3.89693296750532
H         4.15763353318042    0.82008685857869    3.50793538760434
H         4.08277372519920    0.26327871876944    5.18549720474448
H        -1.81942509284633   -1.71417046648584    4.30491954695768
H        -0.65354169571168   -2.98708289435501    4.69864782820906
H        -1.05532238829598   -1.75556108475236    5.89067911211840
C        -5.87821419716355    3.81610957139830   -0.64655908857654
O        -4.67224295293256    3.19824743054771   -0.23151578947182
C        -4.40856155778706    1.94458150354247   -0.63601660806853
C        -5.22849367186933    1.15513856359407   -1.44242757362805
C        -4.79937174098634   -0.12834351576260   -1.76420115184571
N        -3.66550810113372   -0.65427517739306   -1.35955132684630
C        -2.87143339190196    0.09413456468705   -0.58840401667695
C        -1.61323419153927   -0.48694991088622   -0.15335914594881
N        -1.20438780724028   -1.61713449144110   -0.53554530948816
C        -0.09824524747456   -2.25911349074488   -0.11616323550529
C         0.87075725553776   -2.67845723852349   -1.04127832318518
C         2.02030857758182   -3.30652235000934   -0.61077225469736
C         2.20413466496210   -3.58091547792952    0.73775381786548
S         3.78092903001280   -4.20290812035470    1.33573790367393
C         4.99214528515859   -3.04880282244173    0.65447249133104
O         4.02967547763661   -5.52925563696055    0.83044569839748
O         3.76074567468532   -4.04545895282919    2.77553870649421
C         1.21355834734308   -3.30001379191678    1.66559190527580
C         0.05881750741992   -2.58968709710353    1.26647137443349
C        -3.19936553788091    1.38864142463189   -0.20017953415912
H        -5.92585513954563    3.89907438992934   -1.73532944761488
H        -6.74958657799391    3.26861246568221   -0.27829396201695
H        -5.86017479983626    4.81082313740818   -0.20639850265320
H        -6.17294797741227    1.51173087673765   -1.81776615249831
H        -5.41288366977117   -0.76526275467757   -2.38659414357897
H        -0.98847938448726    0.13304791077926    0.51500109739270
H         0.71271774595266   -2.46522139535317   -2.08603145095946
H         2.77904007308327   -3.59875260496070   -1.31843309559661
H         4.58614419587013   -2.04815818593990    0.74495320699568
H         5.90153228968986   -3.15005649233100    1.23392023795000
H         5.17185865330844   -3.30884767137858   -0.37971360674044
H         1.30612287097516   -3.73059942971715    2.65377426136816
H        -0.83604336861728   -2.61217762198526    1.88159457827845
H        -2.54617042873783    1.97986050689045    0.42055949192616
Cl        2.34473206871923   -0.23827432592711    0.48145953480660
