73
 energy: -116.993065682163 gnorm: 0.000593194762 xtb: 6.4.1 (afa7bdf)
Ir        0.04686691834380    0.34588126689285    2.36134707576979
C        -1.99073414340414    2.68786019338213    3.72143983913193
C        -0.67499856248781    1.97782525143277    3.67383475069263
C        -0.28535029725985    0.88874779967932    4.51948647488421
C        -1.11721676320865    0.22141879795839    5.55911587956368
C         1.11362980335302    0.64731478920367    4.32727203757763
C         1.93431713710444   -0.25681788395183    5.18266444031888
C         1.61203270043913    1.62794493926547    3.39504035589103
C         3.05173728992688    1.82954621943614    3.05590526816124
C         0.52128677758657    2.47654196511718    3.02747161746101
C         0.59931404045039    3.74373224317029    2.29422147256577
C         1.63307632980880    4.63899228876565    2.57394368867378
C         1.66676790556743    5.85707159761092    1.92314169686123
F         2.66958152812059    6.71302988390998    2.21066896927473
C         0.71643161694482    6.23503615180879    0.99169337844956
C        -0.29970541746649    5.32993796366843    0.73979726446865
F        -1.25105547322772    5.66154260213302   -0.15731635515875
C        -0.38467882249357    4.10675640939145    1.37493313904249
H        -2.64190671514460    2.38789067391813    2.90152220336764
H        -1.83323687478096    3.76116903953215    3.63762521839594
H        -2.49844276036504    2.48191521081147    4.66005910172263
H        -0.86387079606252   -0.83146077180063    5.64875073531019
H        -0.91261441290647    0.69532490118610    6.52029976816148
H        -2.17906772688653    0.31609281586442    5.35490841217052
H         1.92680027280136    0.12961832367889    6.20236722024001
H         1.52384807106154   -1.26322742832255    5.21091598223828
H         2.96495395554469   -0.29891370108352    4.84587525597632
H         3.15852544444826    2.38193497285771    2.12607236298786
H         3.53654980719217    2.39410180411873    3.85319288690137
H         3.57173987935058    0.87920065362878    2.96862836490312
H         2.38789324032586    4.41973355062167    3.30960148191428
H         0.76344526848358    7.18683299825218    0.48967051984978
H        -1.18175156476898    3.43182532885757    1.11455338380149
C        -6.70513483975254   -4.28298425021641    0.60784510860888
O        -5.63234579917928   -3.45659181525847    1.06024912242841
C        -4.41592667537335   -3.75254305155519    0.62567607649944
O        -4.14891152646857   -4.67172904119160   -0.11113975211220
C        -3.38672576686529   -2.80011268816917    1.15306339184815
C        -3.70302539237426   -1.77337144583065    2.04557706650289
C        -2.70056117319277   -0.91977736816604    2.46525211414674
N        -1.43665507089801   -1.03745258798951    2.06150041159378
C        -1.11724898428945   -2.03196638515594    1.19694953240056
C         0.26331597581331   -2.03103811701375    0.79749098080232
N         1.02316218211601   -1.11820488426221    1.29425200498687
C         2.41554945751636   -1.09216981201500    0.92628791369364
C         3.25951355598395   -1.88034134615740    1.94245553872878
C         3.05772834796447   -3.39483287342575    1.83165150387757
C         3.91626767427846   -4.10259222698946    2.84659752816284
C         3.40644019732647   -4.44618008292931    4.09186755773216
C         4.20540080438523   -5.06983190646438    5.03480176170964
C         5.52867700685032   -5.35483758943030    4.74311324650798
C         6.04670465267185   -5.01575712273459    3.50354865515323
C         5.24541103268683   -4.39207056129066    2.56338282553709
C        -2.07229071028099   -2.92943996333568    0.72750446792447
H        -6.82752761737982   -4.18047158422102   -0.47153606692643
H        -6.50091524237705   -5.32850844405917    0.84307388380157
H        -7.59112736357018   -3.93353352036853    1.13006467031599
H        -4.71336770387964   -1.64655800678180    2.39755835967220
H        -2.92142202786628   -0.11089089857130    3.14506652854437
H         0.62418399273122   -2.75766593058032    0.07747665691308
H         2.55166421426748   -1.52210608293428   -0.07048324210495
H         2.73972503597266   -0.05091647633751    0.90740343362332
H         4.30927035777066   -1.64687544538456    1.76322550090640
H         3.00192993841636   -1.56384516880848    2.95234624014082
H         3.33200857440267   -3.72799066712998    0.82914524758335
H         2.00986995824812   -3.64296838674581    2.00985389927634
H         2.37328128638904   -4.23246591979979    4.32464330807441
H         3.79656414124639   -5.33535173237851    5.99873146767495
H         6.15398148069683   -5.84194728446391    5.47695225891392
H         7.07691649000929   -5.24086540352710    3.26907941034616
H         5.65589008756862   -4.13430236286575    1.59755718319603
H        -1.80659950667045   -3.70977922547546    0.03126620979879
Cl       -0.60682970127512    1.06005280907693    0.18828110191650
