71
 energy: -106.583761918583 gnorm: 0.000546113757 xtb: 6.4.1 (afa7bdf)
Ir       -0.48840821786147   -0.78895896375761    1.48512934399576
C        -1.98930460208696    1.19725184895751    3.85352739612823
C        -0.77390173400279    0.51972184534802    3.31727363454587
C        -0.40223530925638   -0.82053173964015    3.70312036310866
C        -1.14067696262495   -1.66005151006106    4.68983015861907
C         0.93466216940185   -1.06617189153990    3.23319609546567
C         1.78189816890800   -2.22371728581349    3.63457210012953
C         1.33074933179126    0.05232102097430    2.45248183985515
C         2.68517585103028    0.28349272194539    1.87074884652784
C         0.26730565152890    1.05120815697981    2.50714359311651
C         0.45500937884209    2.46116948332605    2.01610221388823
C        -0.65903724967962    2.98281403315865    1.10173537900941
C        -0.29599459554947    4.37599278293730    0.59466394701002
C        -0.08935165522286    5.33538105671986    1.76462382535469
C         0.99745467612141    4.81234551618234    2.70025216508851
C         0.64827365338900    3.41523203677580    3.20613798573792
H        -2.86047506622764    0.54837363871822    3.79303481419080
H        -2.20230197055232    2.12573625008876    3.33667956866090
H        -1.81988777769121    1.42221759756423    4.90726177838952
H        -0.88618195036467   -2.71023967510604    4.57945759144768
H        -0.86732343764794   -1.35046116311431    5.69931734360270
H        -2.21537963677710   -1.54379471857621    4.58129793349713
H         1.18959200018602   -3.12611219197691    3.76037016106472
H         2.56242186020091   -2.42027162168401    2.90570994297471
H         2.25564376345212   -1.99274137283743    4.58935254324213
H         3.27189509447534   -0.63009749861936    1.87540048280873
H         2.61110360975661    0.64475557846481    0.84690884120607
H         3.21165115376121    1.03440923948230    2.45965592798793
H         1.37588036990972    2.47907548486976    1.42545875443095
H        -1.60570555414867    3.04657139316695    1.63824828950770
H        -0.78215869782816    2.30021738274582    0.25961552751165
H        -1.08827810236817    4.74956892209835   -0.05690297307433
H         0.62020757977272    4.32296445945653    0.00219845284617
H        -1.02509864810750    5.44276673157845    2.31832795038768
H         0.18856800853485    6.32260866522639    1.38993485888753
H         1.11650010979106    5.48967354395786    3.54857947364581
H         1.94926690892659    4.78081477796577    2.16496180536974
H        -0.26629753969640    3.46380423633930    3.79736253122576
H         1.44701474117133    3.04439912933164    3.85139087233861
F         3.77772732474785   -6.08135979175150    0.85830981058200
C         2.71574173988494   -5.24981772234166    0.83857796085031
C         1.49062775075972   -5.71570990894151    1.28521641587139
C         0.40240521421583   -4.86435444081670    1.25478067602237
C         0.55147883904379   -3.55449227779889    0.79738505815789
N        -0.54518060763677   -2.68211421425880    0.75866104777144
C        -1.65502348013068   -3.06283630279025    0.20472258371761
C        -2.72142429451470   -2.11587933851634    0.18027996004107
C        -3.96042970493092   -2.32301901946027   -0.43701064282829
C        -4.89220802052629   -1.31312487396258   -0.44179901425880
C        -4.57631268907790   -0.08668029150917    0.16848691973781
C        -5.50004436199311    1.01401187958788    0.19356696002242
C        -6.77064256167435    1.15259888846402   -0.32929225614486
C        -7.19270984932135    2.45510557045967   -0.00560942487218
C        -6.16155943431619    3.02154200566819    0.69026306109161
O        -5.14329883323845    2.16642495629458    0.81497676519625
C        -3.31586071289777    0.03998578797809    0.76778471790673
N        -2.42400018979174   -0.93574080832163    0.78542832794871
C         1.79929649525106   -3.10168207060324    0.36856070475696
C         2.88600252998733   -3.95430386310763    0.37711079467101
H         1.40009966467488   -6.72807780230122    1.64381634082469
H        -0.55832014357942   -5.20473709518580    1.60826475218307
H        -1.75445348613460   -4.03527827487515   -0.26302829169651
H        -4.16227318268484   -3.27059361734794   -0.90934519715819
H        -5.85074740946407   -1.45326384194042   -0.91290911310651
H        -7.33096234452989    0.42206915245637   -0.87465470771756
H        -8.12967199758830    2.90951789414254   -0.25249519021232
H        -6.04749633041884    3.99314453406891    1.12904178570028
H        -3.04111194016706    0.97258085440144    1.23679083955222
H         1.89172075253504   -2.09304153730598   -0.00330344080618
H         3.85518764207383   -3.63256574703022    0.03093207567883
Cl        0.05176424818707   -0.12158858499525   -0.74795763921258
