79
 energy: -122.502782166300 gnorm: 0.000664130684 xtb: 6.4.1 (afa7bdf)
Ir       -0.39605446559215   -0.47158011253614    1.44596573501022
C        -2.31190133709954    1.69233736498927    3.32404581943038
C        -1.13720920498065    0.78320242661988    3.22011450181700
C        -1.16368882822451   -0.62634683963588    3.53180562907652
C        -2.35807151332431   -1.35645995551789    4.04670797832692
C         0.18482737161299   -1.09911702694404    3.54714143019490
C         0.62923699942307   -2.41198956055450    4.08861335593572
C         1.03199217672528   -0.03871946003075    3.09286197696151
C         2.52080485387840   -0.01658420438862    3.13799559241982
C         0.20274070542164    1.14752077836141    2.93381569850532
C         0.72866701589517    2.51346880928871    2.77877178463594
C         0.45375724348105    3.45675910705472    3.76734137177302
C         0.98952448636042    4.72522925703292    3.65200608866106
F         0.72254798861357    5.63053192616034    4.61645588901394
C         1.78803188126774    5.10323466781969    2.58772831934064
C         2.03687723585280    4.14462720031528    1.62061260964454
F         2.80300635578492    4.48222881668272    0.56325372491077
C         1.52707219329761    2.86229240183782    1.69226866153116
H        -2.07280694712609    2.67993967713208    2.94125464728810
H        -2.59635098441078    1.78250519424224    4.37296405959812
H        -3.16966585301159    1.29426595090525    2.78589777849343
H        -2.28208817195341   -2.42309006819533    3.85423502588434
H        -2.43220439263446   -1.21163585983294    5.12504341047156
H        -3.27036813786074   -0.98090661915834    3.59135190681576
H         0.79545321679403   -2.30079853722181    5.16105842948600
H        -0.12880256644866   -3.17686128599880    3.94655547108107
H         1.56106732693360   -2.73661240560849    3.63732245214212
H         2.93237948323778   -1.02071997465873    3.11729389948136
H         2.92953986286812    0.55010349130207    2.30580870105560
H         2.83994873602106    0.46897133429496    4.06145597972394
H        -0.14453505537224    3.20842027313331    4.62857839587160
H         2.19670329750688    6.09717001380202    2.51578587382799
H         1.72147758978047    2.15865872295595    0.89695753877234
C         4.43426668297047   -1.02064941721968   -2.50418251786873
O         3.94883373281746   -1.92112382878101   -1.51081827327576
C         2.84054021559990   -2.59985539593331   -1.79634546628648
O         2.24947626479062   -2.53097943487295   -2.84589054889217
C         2.43823476418435   -3.48187962266505   -0.63244499549726
C         2.13859962906824   -2.73184963490063    0.68170098605554
C         0.70699692912308   -3.29244569498032    0.67350491460930
N        -0.38040560248800   -2.33946567408583    0.66969537048862
C        -1.51619317633266   -2.72715507653024    0.21322088052781
C        -2.61062549882356   -1.79689526687468    0.13487267145186
C        -3.90069311668945   -2.23728602491608   -0.08621870768815
C        -4.92547999969665   -1.29096371207265   -0.02161573814526
C        -4.59231260093948    0.03104462857898    0.05392000272949
C        -3.22326188393233    0.44720036336848    0.04342122689754
N        -2.93892314287395    1.72830270760952   -0.20904464054313
C        -1.60388701088012    2.28950618025155   -0.15512468096072
C        -1.67268922773463    3.78466843059611    0.13225792781684
C        -2.32434345767743    4.53102566777947   -1.03582761929299
C        -3.30931780560883    3.60218592785937   -1.74925348824464
C        -3.94988987626294    2.61924255939289   -0.77238260479512
N        -2.26702591591536   -0.48632666471081    0.28431647033933
C         0.98873905877238   -3.98285832233550   -0.68115281729962
H         4.69691291428958   -1.56472886843166   -3.41302990490850
H         5.31028727650828   -0.54368172965105   -2.07408634996586
H         3.66824746657475   -0.28062090358413   -2.74225419610739
H         3.19124566755624   -4.26324312499679   -0.52898687286941
H         2.74867531708919   -3.04918417750061    1.52161845276477
H         2.18677151129437   -1.65191640150543    0.57819832955582
H         0.52600743435165   -4.00467444554237    1.48308137158245
H        -1.66818037876292   -3.74331740571463   -0.13631130674532
H        -4.10412244477167   -3.28365735692129   -0.23185265137208
H        -5.95889623288825   -1.59825715411349   -0.03297709273502
H        -5.36499890277827    0.77363190717008    0.14854285377842
H        -1.07542285378011    2.11177343453940   -1.09684696390751
H        -1.04003484569872    1.78661319529625    0.62987322295580
H        -0.66475612968710    4.15706687039931    0.31140523398441
H        -2.25054759660039    3.94545938771419    1.04323063966518
H        -2.83852848775232    5.41706197290686   -0.66206530181070
H        -1.56615517171409    4.86740970035369   -1.74307445556552
H        -4.09788971538201    4.18053496423307   -2.23037701706702
H        -2.79753547345186    3.03611923660102   -2.52852265146703
H        -4.45634571476865    3.16931944095766    0.02801464700393
H        -4.68534999780031    2.03110429000811   -1.32228553473894
H         0.86815212418656   -5.06222920664038   -0.68762725034011
H         0.44092944996915   -3.54661015650557   -1.51495284309595
Cl        0.85009625983693    0.15041633277979   -0.49800344793348
