67
 energy: -106.451825922897 gnorm: 0.000400115327 xtb: 6.4.1 (afa7bdf)
Ir       -1.08043122116328   -0.69115858535063    0.36279531757366
C        -1.93577271583175    1.94914528164721    2.53458181301797
C        -1.03826429907358    0.85567049910540    2.07354703788062
C        -1.09848505071972   -0.49986368623541    2.58326066821247
C        -2.08308006060473   -0.98423071040926    3.59232096132147
C         0.11933175718764   -1.16233882659320    2.22145071008025
C         0.59356201651585   -2.45848763674611    2.77725942398025
C         0.84669234629865   -0.28887989785338    1.35506691214925
C         2.23700579657210   -0.48205533042670    0.85654258031936
C         0.13794604060716    0.98040061460836    1.29899275878516
C         0.71323585005610    2.21747858610283    0.70145808213723
H        -1.62480946903146    2.24252845386083    3.53851923410734
H        -2.97049385965062    1.62314442617581    2.58902493583973
H        -1.87362773544524    2.82016099829442    1.89094208431198
H        -3.06735571636518   -0.56028246364908    3.41447411332453
H        -2.15644409064492   -2.06794276549113    3.58259733348084
H        -1.75754042289975   -0.67579484095942    4.58657580074184
H        -0.23019865803803   -3.14352125912675    2.95760871011127
H         1.31465567384733   -2.93739910740967    2.12153433627192
H         1.08186236285422   -2.26113672951952    3.73240477091912
H         2.33744449613130   -0.10322714918343   -0.15771615665271
H         2.52337907903054   -1.52912522273963    0.87548073576311
H         2.92428281239440    0.07712868203072    1.49203516398815
H         0.00052210474751    3.03576013377808    0.72104335895646
H         1.01621834022332    2.03980908043292   -0.32823007609986
H         1.59917256990901    2.50717054557259    1.26646460711593
C        -1.21195825768553    7.67231220988081   -0.65337499437273
O        -1.56246038457390    6.29180519631528   -0.68215772115450
C        -2.68113724090827    5.93753528116346   -0.04535115237712
O        -3.38864894828793    6.71974614995596    0.55095470788639
C        -2.95333558999157    4.48010288407854   -0.14510554086538
C        -2.13060229996754    3.62588887817379   -0.87523712523121
C        -2.42425644502856    2.27665583429342   -0.95482927959492
C        -3.55146283011376    1.76373756434064   -0.31652852097549
C        -3.96132026275329    0.36645736055286   -0.53314969806299
C        -5.27490359479411    0.15882755960153   -0.96858708170712
C        -5.71649447408974   -1.11045564779955   -1.29563418822675
C        -4.81869974777744   -2.15771767352368   -1.19802256090656
C        -3.53157345049309   -1.89679466393469   -0.73368437192043
C        -2.54085125924000   -2.92694758936295   -0.63457863672681
N        -1.36629519259242   -2.60173208872624   -0.20479122126135
C        -0.36791868933503   -3.58563622630101   -0.12064053277984
C        -0.63310506258268   -4.80816099007265    0.49960776263931
C         0.35184055938191   -5.77403538516613    0.57821138007987
C         1.59152915747845   -5.51110543148294    0.01863878265781
F         2.55285368473165   -6.45321458666231    0.09015973895274
C         1.87486942190026   -4.30720994247984   -0.60644034805447
C         0.89129040740461   -3.33905973525689   -0.66743689764217
N        -3.10969738208349   -0.65480882776237   -0.37759342107862
C        -4.37782337570722    2.62391705582279    0.41170396056031
C        -4.07527815117696    3.96647976557126    0.50525435914603
H        -1.97562118645126    8.26618049912697   -1.15862432569724
H        -1.12264741168259    8.01842329193111    0.37800184113805
H        -0.26048805740157    7.74947592079849   -1.17195518756309
H        -1.27235769001266    4.02542256284964   -1.39111995993943
H        -1.80089662666018    1.62804638729968   -1.54837979466641
H        -5.92773894632317    1.01086334913771   -1.06856290880464
H        -6.72741565482742   -1.27284672544050   -1.63432811137081
H        -5.09207966072001   -3.16350037485657   -1.47119916970921
H        -2.76543969577402   -3.93453879240278   -0.96638037345791
H        -1.60066615657075   -4.98971365342741    0.94106313644030
H         0.17184327207486   -6.72071408117534    1.06137629332902
H         2.84929883774379   -4.14262254569093   -1.03746006715987
H         1.07483593716941   -2.40116648439144   -1.16664450191805
H        -5.24977821196136    2.23735660882241    0.91672952473492
H        -4.70070259390978    4.64167504863453    1.06857613337250
Cl       -0.34163169328002   -0.31547305247726   -1.88522314530894
