94
 energy: -139.171528482568 gnorm: 0.000195206834 xtb: 6.4.1 (afa7bdf)
Ir       -0.77645175477312   -0.53499756590586    1.01321333913961
C        -1.20425177411909    2.02762503169112    3.34290680267415
C        -0.42188674648937    0.89687953822264    2.76813300664601
C        -0.60503330374341   -0.47106412068005    3.22754302972257
C        -1.58974978617122   -0.88949656370621    4.26742442623512
C         0.49772445577617   -1.24568577193536    2.76380565277669
C         0.87145550822566   -2.60915934974750    3.22540664360118
C         1.25229485888394   -0.42202948851459    1.86789953748117
C         2.55018166811407   -0.80539246297637    1.24209167418586
C         0.72601631811548    0.93590295458834    1.94137653666366
C         1.49252670109219    2.13019084027806    1.44526511473341
C         0.69409332933707    3.08141207718867    0.55201969512169
C         1.57731248573445    4.22753049901219    0.06936146591009
C         2.17370539836673    4.98291412198082    1.25429267132925
C         2.96607249046899    4.03491122655135    2.15032660661430
C         2.07644193214753    2.89754077927717    2.64320660281107
H        -2.24169778794038    1.74275773899801    3.49486365477296
H        -1.17304553611510    2.91091123794443    2.71530286719418
H        -0.78315681462688    2.27657425157584    4.31832396700314
H        -1.73459586544467   -1.96605060557157    4.25909208024787
H        -1.21766573960642   -0.60367302822583    5.25169753510991
H        -2.55120582427206   -0.40496062432431    4.11807954718207
H         0.00115117025985   -3.18741028244013    3.52201583315278
H         1.41851871647015   -3.15673679672717    2.46317872351749
H         1.52042988733602   -2.50624127890253    4.09625532812181
H         2.60746028208079   -1.88068240718177    1.09445173523227
H         2.67315383669227   -0.31453046604406    0.27972750739864
H         3.37349170493361   -0.50189277678537    1.88947388083828
H         2.33192139382582    1.76216329271729    0.84783333338311
H        -0.15139955159684    3.50118454617119    1.09610331066135
H         0.30493861156596    2.52663358083385   -0.30166156733554
H         0.98285529831570    4.90794036841679   -0.54422705548172
H         2.38372345578852    3.83548514273223   -0.55450798652449
H         1.36908341576018    5.44133609636984    1.83430274324383
H         2.82180354077720    5.78490448793688    0.89514407492435
H         3.36895086483582    4.58165725633015    3.00553418631757
H         3.80970626335313    3.62750873793508    1.58870640018780
H         1.26709878697548    3.31253940519694    3.24365664450863
H         2.65396301357210    2.21761409712076    3.27277095724360
C        -2.52618006419953    8.36502698326317    0.24797028316951
O        -2.79626976412468    6.98894846515203    0.50023768561777
C        -2.21602628235964    6.09621363685685   -0.30602356519049
O        -1.47171287442523    6.39832663776311   -1.21303626598469
C        -2.58575006503253    4.69842529928870    0.03381883080266
C        -2.18685445075516    3.67991995682208   -0.82774970907838
C        -2.51424253056519    2.36558217026168   -0.55753916004679
C        -3.25491641600653    2.05035770594092    0.57958962889019
C        -3.74651528489448    0.67297740123076    0.74975839380334
C        -5.13012195544882    0.50291949877746    0.86807001975866
C        -5.68655561531507   -0.76255886503693    0.82654551917531
C        -4.84214344405741   -1.84219303019808    0.63496731795957
C        -3.46925377561511   -1.61624965417971    0.58474121151573
C        -2.52477476548822   -2.67935366880068    0.39519741974780
N        -1.26545168064189   -2.39516866248714    0.43741020006582
C        -0.32690893062764   -3.42417074169606    0.25662174857108
C        -0.46900984378805   -4.62640346821195    0.95382953577941
C         0.46024213655176   -5.63218434075001    0.76561968876279
C         1.50079960802824   -5.46767037091769   -0.13168359950504
C         1.63882518090361   -4.28168992565345   -0.85731701721471
C         2.70759527908316   -4.13049578752854   -1.85347015832939
C         3.11152624627295   -5.21873366256980   -2.63071714003178
C         4.09932108966027   -5.08396960167025   -3.57906881329884
C         4.72869231307494   -3.85251364142119   -3.78146125438855
O         5.69335304647776   -3.82902131534577   -4.73929444785014
C         6.36066467320662   -2.61256633461578   -5.00268682236606
C         4.33401537039552   -2.76232468917534   -3.01158202620575
C         3.33307697559473   -2.90648949543003   -2.06857644486665
C         0.72926835157756   -3.25144718673179   -0.63228397334151
N        -2.92124287360414   -0.37832484398648    0.68471860788943
C        -3.66917262010896    3.07452155762597    1.43327614748366
C        -3.32674362329222    4.38643586140270    1.17284244753682
H        -3.06777898887715    8.69517712171607   -0.64047726385520
H        -1.45770146491173    8.51813585849632    0.08669579143116
H        -2.86903423082533    8.90587206016417    1.12570843379302
H        -1.62314377172395    3.93861147886013   -1.71068433484288
H        -2.21996406681358    1.58514167543816   -1.23961155090654
H        -5.75341444379550    1.37799758264152    0.95545868957845
H        -6.75290522942206   -0.89857302166227    0.91225061544417
H        -5.22249303634732   -2.84573214151926    0.53826990893676
H        -2.87171671880812   -3.68305664856738    0.17639088412472
H        -1.27908337165103   -4.75149283008103    1.65528964395644
H         0.37026697776331   -6.55308444438452    1.32058171623884
H         2.22257376021772   -6.25839234653962   -0.26288369695055
H         2.62690188075330   -6.17587788440771   -2.51255742382250
H         4.40499731598489   -5.92070666015052   -4.18712875484988
H         5.66422743295526   -1.84247053310632   -5.34746219933176
H         7.07335857145257   -2.83625432513701   -5.79430829758967
H         6.89926363775673   -2.25513658743212   -4.11999426565839
H         4.79729462501986   -1.79722211161495   -3.14071757566612
H         3.04869288358198   -2.04774366130980   -1.48152912835003
H         0.79715768075487   -2.33014373481397   -1.18743936882799
H        -4.25427019499796    2.84352041358394    2.31040873362267
H        -3.63645452774421    5.17532324110200    1.83913242230252
Cl       -0.29760803531379   -0.04402911423598   -1.26128277108564
