75
 energy: -114.080742906309 gnorm: 0.000837338094 xtb: 6.4.1 (afa7bdf)
Ir        0.30613996240405   -0.28451603167164    1.29643869931238
C        -2.11354644581380    1.08584162343050    3.19895606583393
C        -0.73205945381342    0.55680684368389    3.07291580080830
C        -0.40752802501852   -0.82831379910993    3.37488312959313
C        -1.41405530439194   -1.85097936122495    3.77792848903667
C         0.99687467943487   -0.95522463556934    3.31311587547061
C         1.83195504176212   -2.12229182016242    3.71094103813032
C         1.54741946786138    0.38465396070520    3.03979703829626
C         3.00717272608481    0.67266711204393    3.08814102412741
C         0.48887870048969    1.31549516648006    2.97128052896654
C         0.65996115142361    2.80646965354221    2.87850357865112
C         0.06522961478830    3.41742764629750    1.60360540828188
C         0.41063063049260    4.90252687245426    1.53211715515560
C        -0.11695058576403    5.63358684110851    2.76441477718164
C         0.44000642016598    5.00963899297612    4.04198870297579
C         0.09188963303478    3.52465344225062    4.10999093677812
H        -2.84622473838564    0.32917829970706    2.93205092830726
H        -2.27845379726938    1.97188766811395    2.59273389827561
H        -2.28485167198140    1.35356885662812    4.24307654139231
H        -0.94598111538638   -2.81667322616607    3.93963005177720
H        -1.89383465519735   -1.53955550896621    4.70539323998619
H        -2.18442451639001   -1.95829701301507    3.01565381547098
H         1.22665073627980   -3.01096036589264    3.85408326820781
H         2.59591496937172   -2.34327866532125    2.96888289851613
H         2.33855207084294   -1.89264575753035    4.64870860099749
H         3.58466176740973   -0.15796163753534    2.69185320478659
H         3.26073398226431    1.58012420768026    2.54936120733033
H         3.29680501158557    0.80681734657853    4.13139937312217
H         1.73567059253084    3.00874758660449    2.86086110914491
H        -1.02006198645417    3.30881319080375    1.59862097106503
H         0.46195744755364    2.89989180487609    0.72691182327859
H        -0.02170168752436    5.34057492408451    0.63045417031471
H         1.49446650401445    5.02588940699577    1.47548573964346
H        -1.20828089925270    5.58027770898327    2.78049276276006
H         0.16018165656036    6.68851513293511    2.71583386149851
H         0.02946931953455    5.52282652492602    4.91374529409650
H         1.52508726886036    5.13534743071192    4.06494215150645
H        -0.99180438739695    3.41687254332789    4.14440744677066
H         0.50777403037799    3.08543927648012    5.01868933767078
C        -5.09890579601689   -1.97975110333966    1.54004804705846
S        -5.22140780655059   -0.23559490412393    1.04177775968158
C        -3.62359451009000    0.05518972422480    0.42598697119267
N        -2.74014378081289   -0.91808778828268    0.46853152130052
C        -1.52606740356555   -0.73600292026917   -0.07234306833295
C        -0.50733485114478   -1.73660120251734    0.13386482026572
N        -0.29647698822440   -2.86020000619083   -0.31951659732269
C         0.61308947056923   -3.85498481888804   -0.07831881531472
C         0.64459154066827   -4.50321179600353    1.16045627641966
C         1.50310944802845   -5.56683078370413    1.35401709664908
C         2.32638578990587   -5.97615939423323    0.32025270382723
S         3.40691663206452   -7.38556535440213    0.57038671890546
C         2.36910417505391   -8.81599306473375    0.16884239338266
O         4.49421362806264   -7.31919517076075   -0.37980718283664
O         3.76463908612285   -7.45110325401602    1.97040567891588
C         2.30470508634437   -5.34354526992149   -0.90993095933839
C         1.44347417389504   -4.28412460813006   -1.11796916107726
C        -1.13485226875414    0.49029555785731   -0.68521143838043
C        -2.06571330968652    1.52881179840991   -0.68793355492225
C        -3.31443685028831    1.33838350514408   -0.11509869444338
C        -4.26632098817814    2.37704467736124   -0.09540603832362
N        -5.01883510192617    3.24344543542109   -0.07273064401536
H        -6.09766786792360   -2.39430528207326    1.45298701459411
H        -4.75985421397227   -2.03509450235166    2.56923239033353
H        -4.40661914804710   -2.47762259137979    0.87081950711166
H         3.03710748215488    0.45699249377673   -0.43575339125596
H        -0.01645827611653   -4.16938088538834    1.94337413744928
H         1.56480639945835   -6.07802420558920    2.30131430843601
H         2.05976898004122   -8.72289043904103   -0.86378270700535
H         1.52181825819125   -8.81832841524885    0.84183470844720
H         2.97039442155519   -9.70587793465515    0.30865148117222
H         2.97190215010883   -5.68838815894637   -1.68342685014588
H         1.41179351319721   -3.77940372549263   -2.07024622379945
H        -0.26686660947345    0.55312364321316   -1.33119109157412
H        -1.82888622087848    2.47694416333043   -1.14741210133223
Cl        2.25101464119069   -0.52871466119129   -0.25469696027241
