51
 energy: -78.098545129857 gnorm: 0.000480002231 xtb: 6.4.1 (afa7bdf)
Ir       -0.51257827557410   -0.85962816190310    1.16493691940333
C        -1.94894153610749    1.54548028916813    3.16533361847732
C        -0.79366903002096    0.66996490581549    2.81425803150634
C        -0.54928693508538   -0.64163718233374    3.37529266652577
C        -1.39667073517542   -1.30721604405458    4.40551861392122
C         0.78454301843040   -1.03585202625411    3.01178659438299
C         1.51456050040551   -2.20897510849223    3.56646479896425
C         1.31042555899129   -0.04355008155059    2.13460305770938
C         2.71307379619756    0.05844187276840    1.63951411104795
C         0.33773343276910    1.03249435743563    2.04116733307030
C         0.60854983785017    2.34496335910280    1.39182068155094
H        -1.71274096901207    2.08072964127776    4.08607959628793
H        -2.85072157032974    0.96470375125892    3.34040052869955
H        -2.13908064665080    2.28465166260070    2.39134624974171
H        -2.45155520511404   -1.10746781936807    4.23963655781213
H        -1.23743080515593   -2.38171691020666    4.41127350376609
H        -1.12979839689547   -0.92073974804896    5.38985264020828
H         0.84896246786062   -3.05250833666317    3.72877507132220
H         2.32327343163034   -2.52075623167283    2.91173622506213
H         1.94335310548018   -1.92820356617007    4.52895534017917
H         2.73671733039069    0.46445781842386    0.63103324655954
H         3.20571558275337   -0.90929544465044    1.64414665598094
H         3.27269760063909    0.73398129597765    2.28728533288464
H        -0.27998635155620    2.96813444902117    1.36340580940189
H         0.96665282483100    2.20308530399100    0.37386310478037
H         1.38495934347699    2.86776945467642    1.95075749166568
F         4.13945362913414   -5.80517885296635    0.75836043687092
C         3.01603998552872   -5.06204627648973    0.69765016755469
C         1.84080953578140   -5.58038634073451    1.21566196883466
C         0.68841090638314   -4.82052678553168    1.14428403842820
C         0.72650354027693   -3.54726829473955    0.57534275392119
N        -0.43579135219602   -2.76419452369213    0.49869463798454
C        -1.50907337565175   -3.25228098949457   -0.03871951349645
C        -2.64785427532966   -2.38527954886776   -0.09887842258526
C        -3.85468374501046   -2.70589807419152   -0.72256456031566
C        -4.86194312150242   -1.76032171537242   -0.75882304316414
C        -4.63138155582508   -0.51654716842297   -0.17996957503748
C        -3.41008532309909   -0.26696123225175    0.42194360848500
N        -2.44071804996373   -1.17521090940988    0.47854264079673
C         1.92356981042388   -3.03959144839302    0.07141014988049
C         3.07417968697341   -3.80222559432329    0.12280156986342
H         1.83828540530410   -6.56252909934247    1.66008037631916
H        -0.23611969711723   -5.20141373463208    1.54961728020473
H        -1.53208537247761   -4.24757729900970   -0.46652734683537
H        -3.97751177965291   -3.67728532349322   -1.17383340408529
H        -5.80527636167387   -1.97961881600049   -1.23316393877752
H        -5.38779254813949    0.25119446963464   -0.19249410283035
H        -3.20247456959663    0.69163251966072    0.87247191516592
H         1.92725670379533   -2.06358385519646   -0.38794500067589
H         4.00649339950073   -3.43807509557815   -0.27832692824146
Cl       -0.05159385087665   -0.17004751130307   -1.07464848919194
