64
 energy: -92.268189921456 gnorm: 0.000818121407 xtb: 6.4.1 (afa7bdf)
Ir       -0.49931036105706   -1.00671441985769    1.25160322573608
C        -2.06185307671915    0.96599624332171    3.59145097376307
C        -0.82998419350864    0.29866205039683    3.08260050213845
C        -0.46324102369085   -1.04292772440979    3.47490620874069
C        -1.22160525208620   -1.88530123154934    4.44296595193054
C         0.88174930019838   -1.28588916112746    3.03218496673800
C         1.72881325783562   -2.43537672620919    3.45414753745756
C         1.29161249221911   -0.16170992227075    2.25992304337257
C         2.65864226018696    0.07399248187171    1.71285825494030
C         0.22645391735677    0.83641141483079    2.29883362899508
C         0.42143761471498    2.25082543590678    1.82297204590786
C        -0.67323521180904    2.77630686589553    0.88763980038115
C        -0.30981667487823    4.17808174493858    0.40488387684094
C        -0.13749881959030    5.12470025606998    1.59056137730306
C         0.93272039144394    4.59893710751431    2.54362841552551
C         0.58237101589882    3.19411431181530    3.02659706143083
H        -2.93057830793839    0.31858362095078    3.49115477682461
H        -2.25918586750976    1.90581946983308    3.08902026672720
H        -1.92706718089862    1.16903119401065    4.65474136817844
H        -0.96881986057626   -2.93570913484774    4.33108459318394
H        -0.96372306270152   -1.58202939466431    5.45844190000868
H        -2.29391110970617   -1.76395497301249    4.31798502319041
H         1.13781596247274   -3.33694412479453    3.59087676499167
H         2.51300270180466   -2.64148884500131    2.73201638210432
H         2.19727734821345   -2.18785991202738    4.40737404728001
H         3.24558881582695   -0.83935588910842    1.72336609817361
H         2.60996910743278    0.44625108016732    0.69135551282493
H         3.16895122897754    0.81975496492744    2.32255340029129
H         1.35562091501629    2.27721514420254    1.25410515099501
H        -1.63264455444953    2.83007793650183    1.40268995260654
H        -0.77138704465313    2.10301408339842    0.03453740898701
H        -1.09149786179670    4.55312822844648   -0.25877850273425
H         0.61937210025480    4.13956538845208   -0.16803749840391
H        -1.08672962270799    5.21811844818060    2.12375476312884
H         0.13977943116358    6.11863901267390    1.23369901304775
H         1.02813367793102    5.26753717409089    3.40172900713227
H         1.89584039870462    4.58026528095885    2.02845993791356
H        -0.34545043386156    3.23092871044646    3.59774044346459
H         1.36893833929532    2.82168074665321    3.68559698073486
Br       -5.66307324011916    1.28427014035508   -0.33025841598430
C        -4.48006616778468   -0.20530090763467   -0.28565817429009
C        -4.80951622160295   -1.39776263233385   -0.92988516700682
C        -3.90769417277252   -2.43850687364671   -0.86676180940167
C        -2.71230686364506   -2.26926638400788   -0.16129969834647
C        -1.67326215741699   -3.24753824155785   -0.07337978389810
N        -0.58132265895113   -2.89043740390118    0.52861190975675
C         0.48318990123455   -3.79656053089475    0.63158390842838
C         0.26782060831500   -5.09860345486059    1.08491774929352
C         1.33126957873584   -5.97702884453053    1.17511382518352
C         2.60403703731228   -5.57589523102216    0.79768078996611
C         2.81601616151531   -4.28363321927676    0.34012673268262
C         1.76566290283816   -3.38756798805980    0.26807135446672
N        -2.42069719291614   -1.10575095607503    0.47520179484619
C        -3.28125613624275   -0.09846803573943    0.40501029910790
H        -5.74055416397883   -1.49331569628636   -1.46639789848327
H        -4.10618760385175   -3.37485425542480   -1.36286286895236
H        -1.77860464794571   -4.22283919036601   -0.53337734067072
H        -0.72201749705051   -5.40120656053077    1.39056358299606
H         1.16580503342546   -6.97944596975254    1.53769569183512
H         3.42909285998532   -6.26784507926220    0.86177168835352
H         3.80508572628082   -3.97267385205714    0.03964019459203
H         1.90837364038720   -2.38435183295188   -0.10413427588283
H        -3.01472558546884    0.82149004672240    0.90292214473872
Cl        0.09976310292486   -0.32643798446243   -0.96036689517704
