61
 energy: -90.710318540219 gnorm: 0.000190969536 xtb: 6.4.1 (afa7bdf)
Ir       -0.87248443388356   -1.35945970856257    0.93127429250218
C        -2.09519477691205    0.70496056533086    3.37102238410359
C        -0.94113221652657    0.00585168513580    2.73754272072816
C        -0.47270365474720   -1.30277863895288    3.11664669077182
C        -1.02728830270238   -2.12892320699829    4.22730114481607
C         0.79984531578587   -1.52422887628066    2.47332375815321
C         1.74129035687175   -2.62819714033420    2.81432204431702
C         1.05058265150416   -0.42146210658579    1.61747112207557
C         2.29354632174520   -0.14081622361538    0.84604646308226
C        -0.04388667553336    0.52560294865197    1.76514897370012
C        -0.03558622567336    1.90024761787033    1.18308567414551
H        -1.80511787241161    1.01160691286274    4.37653179782534
H        -2.95950585036342    0.05073464341304    3.46053762381220
H        -2.37774891566554    1.59511273302793    2.81696011479909
H        -2.10272470045461   -2.00219394331120    4.31375700428985
H        -0.80409857427389   -3.18213758889756    4.07929574074233
H        -0.57179711270146   -1.81670073604137    5.16787862465173
H         1.21383429233362   -3.56121453423935    2.99505687603084
H         2.47006587758265   -2.79053972580352    2.02603316541826
H         2.27664793357024   -2.36013963463712    3.72593491681907
H         2.05163342943697    0.18566120817693   -0.16364354792433
H         2.93095710413057   -1.01825062224837    0.78917190734358
H         2.84719278101724    0.66181369237752    1.33397194607190
H        -1.00074908461054    2.38669745180454    1.29106435697275
H         0.22001200105729    1.86540075671672    0.12622132295351
H         0.71422257381704    2.50620895935994    1.69231625973457
C         5.06386870224613   -8.98853164531993    0.58725448186804
O         5.20656623503325   -7.69514413482728    0.03404409584550
C         4.14820772340849   -6.85495990104328    0.05568582867512
C         4.38678138770041   -5.58046808383114   -0.51965857204459
C         3.40422760987633   -4.64036760299345   -0.56243527602734
C         2.12073490140036   -4.90894773190329   -0.02981331603193
C         1.09472219789553   -3.95345826089306   -0.04478909496982
C        -0.15566631191244   -4.25624742757972    0.45453541709988
N        -1.16674664071630   -3.29549060672825    0.39957173882312
C        -2.35842451118839   -3.61897046451190    0.00101058199923
C        -3.32672077560476   -2.56556356113582   -0.04068151784092
C        -4.62559582611610   -2.69632196243739   -0.53633549031243
C        -5.44378833237782   -1.58405319382580   -0.57441076260078
C        -4.93976714960269   -0.36678517897689   -0.12624370856060
C        -3.64303055209320   -0.30820241455675    0.35157963303993
N        -2.85365131720456   -1.37705779501309    0.41048683259034
C        -0.40491015730604   -5.53193803101249    1.01146460116240
C         0.59186904894251   -6.46143791810223    1.06365596756525
C         1.87661708804823   -6.18802448478037    0.54116639898858
C         2.90638785746314   -7.14536230870947    0.57600016205140
H         4.82044824877052   -8.93816384686486    1.65212829478476
H         6.03099400112179   -9.47004236665451    0.45825643843088
H         4.29763527518767   -9.56248574726331    0.05879938638732
H         5.37003383921108   -5.39143338851582   -0.92021902908067
H         3.59125625397900   -3.67449126509284   -1.00675490168193
H         1.26550715114015   -2.98633577110638   -0.49479985583140
H        -2.59840746436560   -4.61901872739195   -0.33937409357697
H        -4.96437261653694   -3.65692847141573   -0.88912254493725
H        -6.45124369766262   -1.65570612549756   -0.95249848111442
H        -5.54217174926803    0.52642221113236   -0.14727100378675
H        -3.22218537250430    0.62455378083272    0.69454565165477
H        -1.37869382862077   -5.74404465499567    1.42552605181182
H         0.40742854174719   -7.42815502034952    1.50710213336969
H         2.69277352694712   -8.10721868617499    1.01436636395608
Cl       -0.49805752950572   -0.84688170049575   -1.37681478961925
