65
 energy: -108.037008576020 gnorm: 0.000526860872 xtb: 6.4.1 (afa7bdf)
Ir       -0.64870600350456   -1.06943384682798    1.34579663890411
C        -2.01207041566252    0.77611038218375    3.97465762876327
C        -0.83348587676242    0.15187925252538    3.31876111992820
C        -0.40367923315285   -1.20070074432113    3.56390316791427
C        -1.03511272107573   -2.12558563695602    4.54863267611197
C         0.88787247074573   -1.37034964035074    2.96124304318789
C         1.84269418316281   -2.47586645434880    3.24719016440589
C         1.18407689883325   -0.18519802729974    2.21765260243713
C         2.50296073067633    0.12497504111380    1.59973468280385
C         0.11277362895600    0.77018555870648    2.45865038546546
C         0.17663405157419    2.19602592695130    2.10674098603200
C         0.08873508503374    3.15410064033742    3.11530951403927
C         0.19266896905530    4.49122446492033    2.78314755493708
F         0.11044083180878    5.41059382153968    3.76837635692745
C         0.38221834935248    4.92555945921620    1.48391894897278
C         0.46577461430349    3.94965279621756    0.50632432568809
F         0.65078548259698    4.33598044459410   -0.77420160306886
C         0.37002163549277    2.60129617927549    0.78814064647375
H        -2.19866422470318    1.77254479174495    3.58846983779249
H        -1.82024420666600    0.84041108860738    5.04638265225977
H        -2.90636561144197    0.17096712563858    3.84197665145340
H        -0.76649108836053   -3.15776622392771    4.34389105147289
H        -0.68343427063493   -1.87569643965269    5.55018051210207
H        -2.11711371130020   -2.02932697763381    4.53869384329094
H         2.37859865137711   -2.23122185745148    4.16528452266603
H         1.33149034154003   -3.42246035318486    3.39695111628530
H         2.56973455082304   -2.58777237802186    2.44908124093289
H         2.84542551253342   -0.69402030676329    0.97205330312778
H         2.45195841655588    1.02896696621410    1.00082200257500
H         3.23813538788971    0.27183309426695    2.39162606536629
H        -0.03398760863821    2.87317358985863    4.14820017541046
H         0.46011398433722    5.97270671751906    1.24436117648638
H         0.41122865035916    1.88097324036007   -0.01391182478916
C        -6.94482509945694    0.52882368120741   -0.60811923940607
O        -5.60634895131611    0.64464724339933   -0.14462439434860
C        -4.86168288182653   -0.44526315140373   -0.00506225107282
C        -5.24608660309607   -1.76186566456475   -0.27837527799054
C        -4.32240315219440   -2.77350853226917   -0.11505705408454
C        -3.04170625227355   -2.47796222143244    0.35015040367629
C        -1.97468845676086   -3.42514905984204    0.41742563787416
N        -0.79894652864262   -2.98959765571767    0.74275581856785
C         0.29668590618785   -3.86061465116163    0.73164741198220
C         0.21500538700705   -5.13720836548372    1.29245519562779
C         1.30929082375085   -5.97596220082192    1.25268070635929
C         2.49907143158977   -5.58218025649078    0.64210735594038
C         3.67667161266793   -6.49978861973981    0.61904956710875
C         2.56507409357391   -4.31015534264414    0.07888685732283
C         1.48701301639403   -3.44969143422142    0.13157904491174
N        -2.68161396959881   -1.20838907693152    0.68238023003169
C        -3.54914941665637   -0.23658029576451    0.47261080942496
Br       -3.04053332583017    1.55209572546831    0.77796096275264
H        -7.54442787912868   -0.07375962504828    0.07715703370743
H        -7.32686594922586    1.54691662558293   -0.63111196635526
H        -6.97522600971706    0.10258463498220   -1.61307638475685
H        -6.23836361571915   -1.98321510678488   -0.63580332530558
H        -4.57863767862686   -3.79246732603409   -0.35496535267331
H        -2.13504822353714   -4.45393789911559    0.11684394917418
H        -0.69436110284473   -5.45199264031746    1.78132604365246
H         1.24328515021156   -6.95582901557314    1.70057296302862
H         4.15432640449595   -6.51339923387283    1.59885640235823
H         4.41160252424183   -6.17715044035087   -0.11326359792865
H         3.36854530725038   -7.51734162187933    0.38921744713058
H         3.47401800282853   -3.99068115986404   -0.40790361255009
H         1.53104552964603   -2.47271241186910   -0.32472541124012
Cl       -0.25849354849489   -0.45328959650113   -0.92754813927755
