54
 energy: -77.045027750587 gnorm: 0.000543029540 xtb: 6.4.1 (afa7bdf)
Ir       -0.67788092195233   -1.31018207664762    1.10427248307136
C        -2.08403040330407    1.00167421134759    3.23262123521586
C        -0.92939632093383    0.14977250738552    2.82575870713598
C        -0.67411729448861   -1.18662931310092    3.32102695290536
C        -1.50225915883230   -1.89640642972378    4.33838313375947
C         0.65787263199108   -1.55684720190662    2.92489372883708
C         1.40832907399591   -2.74335435919207    3.42224945109851
C         1.16322679060934   -0.52774756278875    2.08147045160093
C         2.55675529838252   -0.39800650178217    1.56748615186575
C         0.18226772318126    0.54591254367495    2.04494911148604
C         0.43739088189223    1.88473787442198    1.44183851860964
H        -1.84276071213749    1.48789466525793    4.17878238250318
H        -2.98315962367532    0.40967566976439    3.38180867185063
H        -2.28284002604233    1.78050724314713    2.50107855629665
H        -2.56113831825956   -1.70066553708709    4.19350071543140
H        -1.33486864244129   -2.96917065788552    4.30177297161978
H        -1.22599376933386   -1.54423351152172    5.33292332342033
H         0.74389489001836   -3.57998535323588    3.62046018063279
H         2.16594110520433   -3.06079270306648    2.71121761143455
H         1.90572318203224   -2.47564816695900    4.35517894344290
H         2.56000441349372    0.03097781317376    0.56791657914176
H         3.05993802542977   -1.36003503015826    1.54264412603236
H         3.11868986435060    0.26984932399180    2.22150350913007
H        -0.45240036338097    2.50672988853217    1.45961492132706
H         0.77006067645895    1.78350642245518    0.41033283959124
H         1.22631520720904    2.38740918610364    2.00125346604600
C         3.92094289753630   -6.51667139718870    0.76793664851065
C         2.71118477251779   -5.64695422030250    0.65653105546603
C         2.79007325865952   -4.36090235801195    0.12931004793847
C         1.67440907732482   -3.55011703117395    0.05680536791645
C         0.43900305586956   -4.02757290330913    0.49184540904838
N        -0.68617506150720   -3.19897044313692    0.40998914184279
C        -1.78425657409920   -3.63764876800593   -0.12085479535100
C        -2.88198468477542   -2.71850236246159   -0.17206758889650
C        -4.10397600689405   -2.97224607590962   -0.79714583379940
C        -5.06224426941096   -1.97708729760391   -0.82385364657619
C        -4.76945743569702   -0.75084784039584   -0.23562647969345
C        -3.53685381989509   -0.56842976701636    0.36653134421377
N        -2.61551756848714   -1.52545688719243    0.41564541760648
C         0.34282305129266   -5.32171694178311    1.00644799745203
C         1.47146503006032   -6.10981622998302    1.09511034420992
H         4.16028711092003   -6.69265305907923    1.81615311000306
H         4.78119389286168   -6.05765115768931    0.28872580283547
H         3.73681535258024   -7.48545238646701    0.30709339798506
H         3.73799098985929   -3.98906595763339   -0.22946004066654
H         1.73164041211439   -2.56090452165441   -0.37013665614530
H        -1.85500743209173   -4.63023243392762   -0.54938900295376
H        -4.27571471197231   -3.93162778284273   -1.25748542244941
H        -6.01594211334448   -2.14443645793655   -1.29886027757126
H        -5.48597287500493    0.05408602787348   -0.24116941127880
H        -3.28022637629150    0.37544372105417    0.82282729246261
H        -0.60872264350809   -5.68679101472021    1.36198711323870
H         1.39462416460613   -7.10388864561209    1.50917264414543
Cl       -0.19818070268819   -0.58039175209336   -1.12155070299159
