68
 energy: -103.557651481887 gnorm: 0.000453422082 xtb: 6.4.1 (afa7bdf)
Ir       -0.40294146481073   -0.75799631968457    1.69462093420796
C        -2.07214104608328    1.18437658658214    3.98062697456402
C        -0.81281672592965    0.54462956280886    3.50515334717646
C        -0.42019866788916   -0.78411342618590    3.91664843786335
C        -1.18214702588366   -1.64293405787984    4.86683875799902
C         0.94190488960774   -0.99345390889559    3.51095829337062
C         1.80321087575738   -2.12050347193316    3.96086773817481
C         1.34198590037682    0.13500813738994    2.74063792380448
C         2.71513055959172    0.39913700641973    2.22343295992098
C         0.25138154621227    1.10666916480270    2.74676289750366
C         0.42139443698050    2.52346976316216    2.26889884571741
C        -0.65742145467697    3.01317202622725    1.29638986587954
C        -0.30951107358109    4.41682400438754    0.80820159568492
C        -0.19563801312912    5.38066850375400    1.98700979179889
C         0.84998983530373    4.88850860121986    2.98453905559930
C         0.51610935449247    3.48006775405883    3.46903698877794
H        -2.91464864877087    0.50122852549804    3.89737915343872
H        -2.29887346331417    2.09835951856751    3.44385241506511
H        -1.95343685024670    1.42915910284777    5.03718720728472
H        -0.87811146052176   -2.68225165058297    4.78494423920476
H        -0.98282490918321   -1.31059651556147    5.88627673213542
H        -2.25231551469549   -1.57222527614197    4.69393452069145
H         1.24016417916444   -3.04670876776414    4.03751438950616
H         2.64088777680564   -2.27762403804393    3.28861615714760
H         2.19678685824087   -1.87900729221898    4.94873009633309
H         3.30812987406678   -0.51048969621011    2.20685937274441
H         2.67991607704035    0.80824565039896    1.21586155318063
H         3.21226163842427    1.12409024096384    2.86817920742962
H         1.37243842981873    2.57305664767433    1.73048526920255
H        -1.63140784135964    3.05151942117539    1.78432316430727
H        -0.71696890531026    2.32809413145980    0.44934107808637
H        -1.07770876875679    4.76685700387827    0.11571703263351
H         0.63792572018133    4.39206639342286    0.26501989477379
H        -1.16461070762347    5.46313256325966    2.48513525049503
H         0.07607142524177    6.37503315225244    1.62721610868663
H         0.89639993724007    5.56747198633916    3.83848365209127
H         1.83242415882042    4.88879183062708    2.50677175592353
H        -0.43256461197983    3.49963638722688    4.00544732512356
H         1.28717851913676    3.13292628630747    4.15925291411286
C         2.54743100794809   -7.76218952767113    2.29242180968522
O         1.46929917654810   -6.85336350757683    2.14724625487251
C         1.70989876686174   -5.61579335725398    1.68042686091638
C         2.96828691285557   -5.12516299483702    1.32993857183238
C         3.08602229245599   -3.82254609332950    0.86721679951103
Cl        4.65644466192066   -3.22396138626866    0.43021258066142
C         1.99202488881232   -2.98601307695788    0.75311464618380
C         0.73458567462573   -3.48626387746913    1.09436181426279
N        -0.37944163882360   -2.64399795701711    0.96924635577390
C        -1.43743635667579   -3.05430432575659    0.34290893700781
C        -2.52087677178778   -2.12655030316733    0.23390769993623
C        -3.68984786153748   -2.35122712016578   -0.49971089229175
C        -4.64049852637009   -1.35580251272976   -0.58212720739691
C        -4.38675917788590   -0.15141899535039    0.07426743689661
Br       -5.64302017573822    1.27482463437481    0.00925744125216
C        -3.21026981162479    0.01197120245717    0.79248345043113
N        -2.30202003223943   -0.95120244889922    0.87888128853744
C         0.58992439546676   -4.78797861735995    1.55146316750079
H         2.10369310040006   -8.67572315554004    2.68257450868762
H         3.02211466553681   -7.96957390195236    1.33008817268573
H         3.28994073570228   -7.38557736435265    3.00018754078861
H         3.85171620690417   -5.73513231556375    1.41002693266049
H         2.08720168359741   -1.98323595295262    0.37108049202691
H        -1.48400104563428   -4.03303022474261   -0.11975348195758
H        -3.83177129897622   -3.29430240311091   -1.00260684940336
H        -5.55233406841208   -1.49496292034038   -1.14123207492293
H        -3.00200497321567    0.94133836132676    1.30076237110365
H        -0.37333950409190   -5.17570543834234    1.84031721973342
Cl        0.21059523469338   -0.06189895109479   -0.50927074460489
