78
 energy: -116.813105431896 gnorm: 0.000237252217 xtb: 6.4.1 (afa7bdf)
Ir       -0.83997120169097   -0.88272337111700    1.42438134361222
C        -2.09269859252451    1.57565311631708    3.59397394903576
C        -1.00232859580237    0.66794631393575    3.13107574487024
C        -0.87283410003093   -0.68711058547074    3.63436390804790
C        -1.79548894253195   -1.30720431497570    4.62903886985834
C         0.42404139294422   -1.17148975237375    3.27817105988194
C         1.07087034523392   -2.39718739786274    3.82229572557161
C         1.02409038329101   -0.20172997016935    2.41727421024500
C         2.43633635251015   -0.23035443133985    1.93442085286920
C         0.15668247564827    0.96984902870401    2.37525854995823
C         0.63040369114542    2.29752027041878    1.84908768861492
C        -0.30606382924098    2.99686091329358    0.85876911947863
C         0.34830444717155    4.27799840480444    0.34797907543532
C         0.67022478910531    5.21578023687206    1.50892663722124
C         1.58143867192782    4.52242548653165    2.51825867126075
C         0.93985352730839    3.23530626937319    3.02907994882252
H        -3.06900343715985    1.10715058678178    3.48814766262672
H        -2.09929392572488    2.51704950249045    3.05758007738818
H        -1.93757280723509    1.78244823958413    4.65386351364309
H        -1.70521839250459   -2.38971284554226    4.62786578842585
H        -1.54228511078168   -0.94709229847318    5.62685316833040
H        -2.82884044515497   -1.03933258627906    4.42601860403727
H         0.33669205595376   -3.16530980122792    4.04790739282785
H         1.80610547605578   -2.80397295950557    3.13400364201434
H         1.58047684017020   -2.13366999068260    4.74978990721578
H         2.82937312335657   -1.24218493452734    1.95106660661615
H         2.50965699041048    0.15455815138622    0.92008483967963
H         3.05412469366001    0.39202185916719    2.58225833264964
H         1.56859939372127    2.11972717042288    1.31548569038609
H        -1.25054558706772    3.25940159603325    1.33613811201339
H        -0.50857233413421    2.32806466738369    0.02081555846590
H        -0.32009029853424    4.77535701055216   -0.35769771289283
H         1.26822740928096    4.03180763747556   -0.18713494789439
H        -0.25726973357652    5.51703618491809    2.00221767038645
H         1.15324883529918    6.11984739687978    1.13267255266114
H         1.78129907474902    5.18993104526438    3.35918707758266
H         2.53739752253518    4.29235952106153    2.04214533365015
H         0.02010426284039    3.47795031273993    3.56153016529538
H         1.61326105820712    2.73813403847655    3.72982771739799
C         4.96922959671459   -5.46844272058980    0.16418910084219
O         3.76913669652263   -5.91169376463095    0.76855343623931
C         2.69710523922144   -5.10034498028870    0.77137860488786
C         2.64904532287028   -3.82370770865735    0.22397687947933
C         1.49483831076796   -3.06441850148359    0.28946850815997
C         0.34839360104878   -3.58636190532542    0.87943028467643
N        -0.81612858193235   -2.82471977908488    0.89052587924095
C        -1.96883885058189   -3.37847543406159    0.65661602777694
C        -3.11112724904401   -2.52546965470536    0.60769126614478
C        -4.40354389788723   -2.99457502223536    0.28697058305471
C        -5.43086920136013   -2.10324842041299    0.18537070758601
C        -5.16603953049946   -0.72265946667919    0.33948869032443
C        -6.16493854036550    0.25386012537403    0.17639391768495
C        -5.84958248056598    1.58495067778825    0.27868321968750
Cl       -7.07462838233724    2.79076707988851    0.06904222997240
C        -4.52807964454765    1.99262821855468    0.53172959164340
C        -3.54731531934202    1.05860070088895    0.71760158074593
C        -3.83400345968713   -0.31824703655312    0.64590236299457
N        -2.85142414594824   -1.22909353993317    0.83550009670493
C         0.37779522878157   -4.87534702422130    1.43618886525144
C         1.53493798145369   -5.62727179787868    1.40462241448957
O         1.67952028548641   -6.85945779015629    1.93834958971045
C         0.57376903169345   -7.45829236199954    2.58568382632648
H         5.36676285212065   -4.58624703412601    0.67283251214729
H         5.66813790580684   -6.29534955415190    0.27135254425243
H         4.82281239578152   -5.25061597554437   -0.89702323873884
H         3.51547012316969   -3.41146523637383   -0.26585174030810
H         1.45509832466502   -2.08746412068340   -0.16392720622559
H        -2.05463592709638   -4.43083614902330    0.41673182763897
H        -4.55320360654365   -4.05059900395293    0.13308130349195
H        -6.43594441894441   -2.42748035625708   -0.03432268385678
H        -7.17326022334704   -0.05733032951298   -0.04550914507628
H        -4.30132373780260    3.04559727421934    0.56943238874876
H        -2.52247976061496    1.35483437828824    0.87095849136693
H        -0.50463186257627   -5.25386011766111    1.92503972035929
H         0.92950753990223   -8.42876379041040    2.92510711165321
H         0.25167957666495   -6.86846613432694    3.44806731671475
H        -0.26219134605194   -7.60014538929161    1.89553653043586
Cl       -0.44959232446258   -0.27685007645582   -0.84697350348823
