58
 energy: -101.168346442337 gnorm: 0.000317718009 xtb: 6.4.1 (afa7bdf)
Ir       -0.29530102954858   -0.87723421929200    1.60348339834007
C        -1.20325226694376    2.21545917305950    2.58965906614807
C        -0.35198188791340    1.00085518109402    2.76488006246913
C        -0.57594738821342   -0.07990391142207    3.68948883226084
C        -1.72305656557403   -0.22796075553703    4.62652324381852
C         0.59426542105624   -0.90751704793642    3.70126424298211
C         0.85182208734145   -1.98045198372573    4.70232296939847
C         1.54745277476435   -0.34311491632942    2.77617003089191
C         2.97846616888763   -0.73908754092837    2.63751234009591
C         0.98160701677078    0.86362351848484    2.24604805044125
C         1.69711161472695    1.87209828127833    1.42535985035016
H        -0.70866045585163    3.06946499155645    3.05252672152423
H        -2.17594664728757    2.09457859863432    3.05751288152484
H        -1.34168904188489    2.44427996763634    1.53455670912389
H        -2.62447410737747    0.24231844261794    4.24427289184047
H        -1.92949587208097   -1.27440898949123    4.83388664091200
H        -1.46646384591336    0.25697340350668    5.56945779879143
H         0.05407898308244   -2.71951600032945    4.71594443887373
H         1.80035438437077   -2.47514384196763    4.52056227593128
H         0.89113713858604   -1.52360534385399    5.69195248749671
H         3.35118103036123   -0.49738435340419    1.64614651397593
H         3.12043615438658   -1.80048496757931    2.81429445091720
H         3.56976479172406   -0.18530333762208    3.36747366204607
H         1.00008323828012    2.47929191118168    0.85539397910391
H         2.39267366195291    1.39956969538096    0.73700088465308
H         2.26476023181814    2.52417080842440    2.09073292245621
C         5.04250404429901   -5.37077380236615    2.55095072523615
O         3.78692084635108   -4.71636930393539    2.62200041684963
C         3.16368419911485   -4.36466085665344    1.48046282504908
C         3.67335485498216   -4.54437287535521    0.19352248821306
C         2.93391825918662   -4.14277998122871   -0.90622756585556
C         1.69024955288590   -3.57122628241508   -0.73603887772600
F         0.98042151245879   -3.19197912031877   -1.82073625790423
C         1.16552028701644   -3.35421218798033    0.54423774402626
N        -0.07507368298177   -2.73099853870736    0.73253162601747
C        -1.10787344697125   -3.16654824710721    0.07741768783795
C        -2.32674452187346   -2.43226665503414    0.20995535860832
C        -3.51504221070174   -2.75795055231764   -0.45322410654050
C        -4.62221046450226   -1.95564239488101   -0.28378785273919
C        -4.50220067961626   -0.83666124293297    0.54808680005382
C        -5.68281594939759    0.07733357254774    0.74245001385270
F        -5.93209110973456    0.81539721827021   -0.35325086416201
F        -6.80931971527086   -0.60211165969086    1.00548612579907
F        -5.50722885824762    0.93997268248202    1.75239643991440
C        -3.29625543730338   -0.56738762147272    1.17255113829153
N        -2.23249178982536   -1.34859851139815    1.02264278076290
C         1.91312089655685   -3.76352201871797    1.63896632789261
H         5.31763379022425   -5.57826378767466    3.58273794819090
H         4.96850107538141   -6.30969462505093    1.99741588222726
H         5.79840611626256   -4.72767091765018    2.09385925762032
H         4.63765122227328   -4.99658432141205    0.03392373605707
H         3.31445674445992   -4.27804138616835   -1.90592560365338
H        -1.05968110295246   -4.04310995706367   -0.55804266795593
H        -3.54804384354841   -3.62331525219883   -1.09514913429889
H        -5.55763386888808   -2.17437487348533   -0.77497558687240
H        -3.18733308878111    0.29972018869358    1.80693389233718
H         1.50480867770151   -3.65760108048241    2.62922712433242
Cl       -0.14871489813593   -0.06117337179820   -0.62218616779687
