67
 energy: -123.352174215789 gnorm: 0.000269927664 xtb: 6.4.1 (afa7bdf)
Ir       -0.98273825635926   -1.10293145242541    1.47778512602988
C        -2.28129104305605    0.64476881051737    4.09546480197191
C        -1.08590066866989    0.08211907205004    3.41129843603586
C        -0.52003651782448   -1.21160672356697    3.66407360031313
C        -0.99550051016933   -2.16764929650828    4.70144819950989
C         0.73308537361763   -1.29821233978518    2.95220955150171
C         1.75763743132146   -2.35806333329156    3.15946845794439
C         0.89268468852555   -0.10999604534265    2.18856938314470
C         2.11240759091765    0.30866425169625    1.44806889899317
C        -0.25668395135850    0.74783791659750    2.45529857687743
C        -0.33202151589464    2.17515603811637    2.09461361012718
C        -0.36994317174971    3.12386297240683    3.11506320264031
C        -0.39015891349972    4.46557621814536    2.78322769336895
F        -0.42171183825976    5.37565022915705    3.77722340987694
C        -0.38078014393865    4.90992171487335    1.47297642602546
C        -0.34759615910323    3.94203709292906    0.48406453203082
F        -0.34169370586690    4.33701506596342   -0.80462640583698
C        -0.32276715735499    2.58917257011136    0.76564696317787
H        -2.60068939106618    1.57246509084203    3.62944927563128
H        -2.02533386371671    0.85167459368026    5.13510403660624
H        -3.10752734453050   -0.06270599520584    4.10027711790110
H        -0.70636012221179   -3.18669810142925    4.46082227995514
H        -0.54078843851235   -1.90668959889563    5.65797536394158
H        -2.07428063559737   -2.11819537041518    4.81688616250823
H         2.35995987152987   -2.08955662472820    4.02802925205495
H         1.29961289148351   -3.32408808230150    3.35232400030615
H         2.42044887643976   -2.44659314789477    2.30416493561850
H         2.70404672392588   -0.55049377756118    1.14637594390650
H         1.85665214844278    0.89067403619163    0.56727602092934
H         2.72270410731204    0.93500461738847    2.10008864497644
H        -0.35734888205937    2.83429672995642    4.15291048672221
H        -0.39638239845130    5.96011912545556    1.23384130978059
H        -0.31918188228434    1.87277856282395   -0.04072070212525
C        -9.08313086570724   -0.58883267752857   -0.70621629181428
O        -7.72147535695863   -0.53149688611625   -0.27911769218977
C        -6.98425727894482   -1.61696499740555   -0.45530486822034
O        -7.37157337089350   -2.64785628791384   -0.95069553230607
C        -5.58113884640522   -1.42912165580503    0.04080055702089
C        -5.12376857498282   -0.21882493812550    0.56643945162538
C        -3.81822431657063   -0.13367851578302    1.01518860496536
N        -2.97544082105155   -1.16322221950328    0.97411551188628
C        -3.40015588165213   -2.33791383001333    0.44094914945743
C        -2.38288475235157   -3.34575476723436    0.38272821362266
N        -1.20952074001945   -3.01017599744393    0.81577318882426
C        -0.15177614146770   -3.93136010318323    0.76113279317559
C         1.04874902157276   -3.55421359675817    0.15981606216105
C         2.09018766136344   -4.45770744518719    0.08006153842590
C         1.94312728727476   -5.73016230905665    0.62433961680696
C         3.08659210302241   -6.70031792157317    0.51228237908411
F         3.19534708306095   -7.21260720434006   -0.73139684386446
F         2.97548235498083   -7.74860834735065    1.34110854385006
F         4.27316614037218   -6.12604265106336    0.78060428254301
C         0.75346002278522   -6.10755405583582    1.23521415719842
C        -0.29653782416247   -5.20999791469636    1.29846178304313
C        -4.70070595970081   -2.49945928344408   -0.03076379699502
H        -9.45298728621743    0.43168537259851   -0.66568107062490
H        -9.14507228540526   -0.98668127383501   -1.72016535098757
H        -9.65602786129496   -1.23221616772371   -0.03671011808447
H        -5.77708719768809    0.63597338171045    0.62401138856621
H        -3.43627794734247    0.79148004595313    1.42043291120199
H        -2.57984890541383   -4.31901939371856   -0.05161541569510
H         1.13797508316377   -2.56868895124525   -0.27117126130486
H         3.01709719654904   -4.18166234787524   -0.39816259842755
H         0.65003286753137   -7.09525814408011    1.65652194810877
H        -1.21900154983669   -5.49191907823395    1.78143713977573
H        -5.02810836087937   -3.43738570408716   -0.45243349628548
Cl       -0.65518988882455   -0.54121095357471   -0.81717047700296
