80
 energy: -124.139321038189 gnorm: 0.000326105479 xtb: 6.4.1 (afa7bdf)
Ir       -0.15205501128564   -0.89863919026301    2.20023761652310
C        -1.58473881128107    0.64170634703335    4.82047650320935
C        -0.33748886321769    0.23422168490245    4.11396606018875
C         0.41127032283723   -0.95703991649903    4.37540743165716
C         1.60504790931487   -0.91593779441353    3.57213966570177
C         2.78473107687525   -1.82643455127315    3.68158099238861
C         1.62593766418809    0.33857838312662    2.87210745080801
C         0.40650664440662    1.03081876823976    3.16446442789021
C         0.10291953696667    2.40229714402497    2.73390495195036
C        -0.19979731440891    3.39346433129006    3.66609473438359
C        -0.43491388083365    4.69034236793885    3.25364748980900
C        -0.37197513986425    5.03728027640999    1.90484203079477
C        -0.60143126176588    6.42372554300975    1.47200317944475
C         0.21095946149979    7.00098637861371    0.49799810818734
C         0.00645107202883    8.30799779904962    0.09568133970466
C        -1.01707038145013    9.05637522451659    0.65429562170257
C        -1.83323823272783    8.49061995191714    1.62037743111563
C        -1.62593691716004    7.18591373121020    2.02938827678142
C        -0.07381575983505    4.04154235688176    0.97553376577368
C         0.15865735744229    2.74299555076031    1.38168957121477
C         2.78068976745241    0.86059758653003    2.09728281382427
C         0.08933534844132   -1.96606124659326    5.42248383440327
H        -1.33314524587292    0.98301037873496    5.82522564501370
H        -2.27168748170709   -0.19556737320669    4.91983150841072
H        -2.08440262023741    1.45100927976924    4.29564930605018
H         3.54749618811853   -1.34757819213636    4.29654021580944
H         3.21665580615559   -2.01743862040150    2.70196883121509
H         2.52218100889289   -2.76998993366916    4.15075365859644
H        -0.21794315376736    3.15516396305119    4.71798699912866
H        -0.64415691751840    5.45273678516171    3.98866231120416
H         1.02191839627292    6.42906422511698    0.07085821167350
H         0.64808444129468    8.74609853490497   -0.65524213675705
H        -1.17721581778922   10.07671241442582    0.33825356246349
H        -2.63471024912118    9.06998899892652    2.05523868900239
H        -2.27569423595981    6.74774170474063    2.77298303573668
H        -0.03894783948689    4.28555410330550   -0.07551063247009
H         0.37141803593676    1.97786652637579    0.64907772509553
H         2.91200951084693    0.29984301700314    1.17240332510175
H         2.63302687325891    1.90734574670905    1.84594216645459
H         3.69106845041520    0.75255550824357    2.68522776804035
H        -0.98273998314254   -2.04677931936797    5.57605982409406
H         0.48493616333182   -2.94520167313556    5.16858846394057
H         0.54334120067740   -1.65179772474809    6.36297034855579
C        -7.49899361389269    0.87588791230579   -1.48823541681619
O        -6.24987009385910    0.73023990672013   -0.81211719119992
C        -5.70391893634044   -0.47840043414417   -0.80279159637319
O        -6.18664284972440   -1.45696497153424   -1.32152761761557
C        -4.40860087117678   -0.50303840360595   -0.05316175852734
C        -3.81745395511722    0.65405515136696    0.46080703753018
C        -2.62117294730212    0.54758829285075    1.14495287299979
N        -2.01009416912213   -0.61749054566458    1.34800117785514
C        -2.56812904753320   -1.74602264135126    0.84484725073211
C        -1.80667622428469   -2.93786551135685    1.09257861909546
N        -0.72069261158672   -2.80816250769856    1.77991343980665
C         0.12284441417872   -3.95197604975210    1.99785211161774
C        -0.56725942770207   -5.27795162411566    2.39125134271679
C        -0.01398564938992   -5.97064075036287    1.13176963883060
C        -1.06072697184922   -6.44310997853753    0.15134715538458
O        -2.12025213609290   -5.88618004922171   -0.03179762077910
O        -0.66204571871931   -7.52394511774878   -0.50184921414498
C        -1.53716679989819   -8.05225288986625   -1.49977937083852
C         0.64692312769349   -4.63641295196201    0.71328644427043
C        -3.76665286333242   -1.71840749978577    0.13611041125323
H        -8.18425701326773    0.08187797863439   -1.18790881555003
H        -7.34730959841063    0.82363924483143   -2.56743548053953
H        -7.88294172208719    1.85108325155417   -1.20243028495962
H        -4.28612593364821    1.61449161715243    0.32643657275871
H        -2.13476375457499    1.42903946237870    1.53882040950794
H        -2.13736263739266   -3.88889240515757    0.68186909115880
H         0.92055451876872   -3.65959202211763    2.67788269872507
H        -1.65284051081167   -5.22093377774838    2.41287046667901
H        -0.20750139832716   -5.69955776414492    3.32495790071487
H         0.69134374946495   -6.77849593710675    1.31418899247097
H        -1.64775537694643   -7.33749190930442   -2.31665094926395
H        -1.07121372733286   -8.96752477627016   -1.85260106894108
H        -2.51846060364985   -8.25725268768734   -1.06926613372852
H         0.24077015781483   -4.19888635381169   -0.19570915656741
H         1.72898824903420   -4.67409874054454    0.63824249812724
H        -4.19293994886586   -2.62540605101066   -0.26350709180828
Cl        0.67119377619442   -0.92114854292974   -0.03012648806088
