68
 energy: -123.580540312221 gnorm: 0.000749807589 xtb: 6.4.1 (afa7bdf)
Ir       -0.65447179744021   -0.83317162260152    1.43427068241145
C        -2.12162374777789    0.82822096384190    4.05098567148329
C        -0.89890253247379    0.25222469823288    3.42931852730448
C        -0.44101660793431   -1.09440385297560    3.63407360768640
C        -1.07928353178620   -2.08689013701988    4.54293232158084
C         0.87595980151192   -1.20664930913791    3.06257720332905
C         1.83744489159951   -2.31289637107484    3.31126139831703
C         1.17917053328252    0.01414446005910    2.39831281964130
C         2.50282998038680    0.36275021627105    1.81548992920089
C         0.06938445629779    0.92929190331675    2.62481619697939
C         0.11874114068144    2.37461583299311    2.34853700430836
C        -0.04070891609891    3.27713899455343    3.39897209335259
C         0.05072379274630    4.63167007878505    3.13946352048390
F        -0.10039941800112    5.49594971612171    4.16246069887950
C         0.28836023638037    5.13532409880590    1.87290408275692
C         0.44152000863789    4.21401867691627    0.85153994388516
F         0.67062819426052    4.66623647422876   -0.39687213821190
C         0.36513731669428    2.85052409995967    1.06164662467246
H        -2.35042605469127    1.81004976256315    3.64857851371402
H        -1.95665011154214    0.91758421688676    5.12546528528632
H        -2.98092055574099    0.17691039476790    3.90792351821589
H        -0.77942265940712   -3.09991046372366    4.28971119704985
H        -0.76071774053993   -1.88761155452738    5.56676579836509
H        -2.16273061021387   -2.01467818983839    4.50790546787164
H         2.32829691396142   -2.12581878067886    4.26747743728452
H         1.34208717397061   -3.27791099488476    3.37542725060876
H         2.60286957559647   -2.35209273940603    2.54272921949829
H         2.82261737091567   -0.38703287608225    1.09456080530447
H         2.47384669484596    1.32992270408555    1.32390829484317
H         3.24326636137108    0.39829425159079    2.61487939345406
H        -0.20495974143701    2.94080803341210    4.40916317337933
H         0.35428514665073    6.19477706483934    1.69007488357750
H         0.47303546062551    2.17509396347777    0.22741099203547
O         1.89987964020820   -2.26035989507445   -0.28089263643645
C         1.52942844747399   -3.40164435864200    0.28143719376226
C         2.51433483364567   -4.39275019680615    0.40565214768053
C         2.24538436707028   -5.61838772936087    0.96574080406024
C         0.95686847975587   -5.89246414327881    1.42561231321276
C         0.65760834507000   -7.21275366500578    2.07197874309958
F        -0.64230326674970   -7.54620580903626    2.00076504830165
F         0.96426890623016   -7.21654305989460    3.38853636949544
F         1.34440054769775   -8.22943384514212    1.52886458430550
C        -0.03611811311199   -4.93592119828981    1.32462134580136
C         0.23090422830693   -3.68702971649355    0.75931267266070
N        -0.80154563972554   -2.73880840772046    0.70555884385027
C        -1.97691953792073   -3.10464152564378    0.30210557309989
C        -3.01785093051510   -2.12346455032876    0.30172502868685
C        -4.31757385438874   -2.40405394601466   -0.16177140650539
C        -5.24566825519978   -1.40096606370717   -0.18372895735486
C        -4.86333714521793   -0.09695995476356    0.19374730607456
C        -5.75135192113830    0.99515899640645    0.12835467644287
C        -5.33062939230022    2.25828787711327    0.44591605402010
C        -3.99794317927680    2.47879885301121    0.83023017761020
C        -3.11613667534656    1.43681964951444    0.92967551442541
C        -3.52209832281539    0.12164642033751    0.63468049238419
N        -2.64984043009812   -0.91020991512282    0.73872965922972
H         1.17024503027729   -1.63847235150259   -0.51701772733804
H         3.49970132486025   -4.15995789119269    0.03645355254160
H         3.01794627765892   -6.36631003355331    1.04633853199047
H        -1.02250086967160   -5.14015144373256    1.71303332114562
H        -2.16104432288339   -4.10219167513262   -0.08036685984346
H        -4.55484575507525   -3.40449573387763   -0.48397028383605
H        -6.25884445427142   -1.58331909777751   -0.50731961673961
H        -6.76524724811287    0.81557683342630   -0.19425433266720
H        -6.01239259597379    3.09184781400441    0.38712397932546
H        -3.66712725027563    3.48285087303309    1.04505719094531
H        -2.08594778574266    1.61609541957167    1.19004380322245
Cl       -0.20974450777900   -0.15249424307412   -0.82717152519060
