75
 energy: -111.182379522527 gnorm: 0.000189957467 xtb: 6.4.1 (afa7bdf)
Ir        0.13387573600021   -0.37007002282130    2.35883391301700
C        -1.78769236947922    0.76077896746372    4.86204435662133
C        -0.42527964065705    0.41801311914270    4.36660332647596
C         0.22521483649461   -0.83843240224107    4.55604898600531
C         1.56065881584760   -0.73303587267904    4.02396318606682
C         2.66446252691999   -1.72246575331671    4.20582184297501
C         1.75647319990504    0.62308704312831    3.58687059457042
C         0.51863173176980    1.32222163291107    3.74455313825464
C         0.32591383172971    2.75660997504351    3.49882222511497
C        -0.20479864495595    3.58852291011594    4.48367176284961
C        -0.36178533902050    4.94021888053111    4.24751930474885
C         0.00761436312915    5.50310597453232    3.02655740378771
C        -0.15097549817999    6.94372204805704    2.78110045715954
C         0.84192826950155    7.66108950827985    2.11670551383743
C         0.69762232357443    9.01770200545628    1.89145727063644
C        -0.44238691273421    9.67783209417623    2.32060761937991
C        -1.43694844390626    8.97329495867863    2.97946154260785
C        -1.29211510212876    7.61780062561498    3.21087858573431
C         0.54088309277641    4.66789399337652    2.04523442161994
C         0.69920788276125    3.31597372741623    2.27506944638083
C         3.05735058117334    1.20744098015567    3.16809580458910
C        -0.33426365104944   -1.98127526511043    5.33086127910218
H        -1.74529263601076    0.93988598695334    5.93702849697009
H        -2.48197297399167   -0.05913785523164    4.69374853576377
H        -2.16763745853217    1.65591997028769    4.37772604887274
H         3.19235016929319   -1.50174674055633    5.13459593479076
H         3.37811212980988   -1.66156559237839    3.38866183145624
H         2.28547115590729   -2.73802347066545    4.26713070821694
H        -0.46381215797349    3.18149417402092    5.44821969079727
H        -0.74998099706473    5.57523402523808    5.02944269326383
H         1.74219030480623    7.15825372232758    1.79484863669390
H         1.47743716721697    9.56353530251980    1.38046814662426
H        -0.55433995483706   10.73724466831831    2.14268437304675
H        -2.32849553442914    9.48374669066630    3.31333821238720
H        -2.07894632093139    7.07345470792872    3.71205508833288
H         0.82327797433307    5.08267993094992    1.08900506800019
H         1.09650151527385    2.67904390446462    1.49799874085776
H         3.32323644308755    0.88355322742522    2.16218151146580
H         3.00770858075231    2.29330440872615    3.17402969347726
H         3.84213558437680    0.87545282893943    3.84528597458555
H        -1.38557968586093   -2.13896938614881    5.10386781339733
H         0.21358042299832   -2.89936080548895    5.14175991607947
H        -0.25287468674225   -1.75546306963961    6.39467005392713
C         4.22683083453868   -3.87379902365613   -0.12824748038490
C         3.67527915048660   -4.77848541105078    0.65908374698863
C         2.33843082505393   -4.69128482309530    1.33387792935028
C         1.56683362124994   -3.41058695301880    1.03530707441145
C         0.21218958653543   -3.39827045964276    1.75746539258697
N        -0.45653279819690   -2.14103641910376    1.53409553646458
C        -1.39800650011419   -2.07000309488860    0.65784949917011
C        -1.99562243989556   -0.78639548895587    0.42346084450908
C        -2.98548259967638   -0.53600990096732   -0.53129987378199
C        -3.44662389447590    0.75048354204508   -0.68528144026105
Br       -4.77678123968761    1.18331723873477   -1.97036340182689
C        -2.92615992068255    1.79016775690696    0.11744405472142
O        -3.40987095560462    3.01045557432681   -0.07930627712434
C        -2.91417799663370    4.10089482493974    0.68180391059411
C        -1.95226525647688    1.44269015580522    1.05609640215201
N        -1.50348620151550    0.20171951730980    1.20079057143879
H         5.19707749861824   -4.03328605011598   -0.56782476690666
H         3.74908334675147   -2.94135104949078   -0.37377798705105
H         4.20816914544697   -5.69832714110736    0.86817808782817
H         1.74817008805761   -5.55903945124772    1.02424860735927
H         2.49871562874175   -4.78693337465453    2.41177248754235
H         2.14728100793366   -2.54400633759506    1.35137896496628
H         1.39471630132619   -3.32452261396761   -0.03805315970638
H        -0.40548220410263   -4.22469548993884    1.39279784803117
H         0.37163602087125   -3.51856049600680    2.83013571210688
H        -1.73449159133942   -2.93897647777311    0.10240701170907
H        -3.36863718202957   -1.33663295362127   -1.14300657065638
H        -3.43574250140836    4.97581067880740    0.30064297769311
H        -3.13972228999302    3.97226251556185    1.74231289656063
H        -1.83819166766967    4.22486126516621    0.54357732741821
H        -1.51418648680506    2.19397331972196    1.69642235776382
Cl        1.34412903991240    0.00549186442775    0.34503856570337
