76
 energy: -122.588654612161 gnorm: 0.000493036965 xtb: 6.4.1 (afa7bdf)
Ir       -0.47954559654308   -0.73485903072312    1.49094273053416
C        -1.41085995563206    1.00175832482606    4.32747182378508
C        -0.34733999349214    0.38321013592221    3.49155677145664
C         0.09735638417699   -0.97456636449466    3.63046716308518
C         1.27529498020197   -1.13954137525108    2.82225861516353
C         2.24696690077732   -2.26323816179250    2.91332690867376
C         1.49637661891725    0.08171377643537    2.11043214200611
C         0.48439935041300    1.03221866077292    2.52434550907111
C         0.53941596150314    2.47354285016092    2.24345417712964
C         0.61757217596918    3.37591528680796    3.30273302242812
C         0.72630966383228    4.73029851931245    3.06061195917563
C         0.76029016250471    5.22422817830101    1.75801132226124
C         0.88749697394783    6.66756395761541    1.50736213806767
C         1.72873313806722    7.14196635813936    0.50294682567163
C         1.85849929545077    8.49995957465874    0.27618982767880
C         1.14464632576669    9.40611785220912    1.04348478459587
C         0.30156374922606    8.94525953219134    2.04173115416643
C         0.17607803425654    7.58797508714751    2.27466423830547
C         0.67989500869329    4.31782890632859    0.70220898247543
C         0.57141566190559    2.96270624032573    0.93915658214860
C         2.70886584449861    0.39075303092927    1.30559847249571
C        -0.40007315493453   -1.94130400396334    4.65081991586317
H        -1.06034038211999    1.04607304624703    5.35947251603276
H        -2.32000378775469    0.40431080350945    4.31844576716988
H        -1.64147501061019    2.00739102697064    3.99130064874751
H         2.94492827965280   -2.04271467300576    3.72249190406411
H         2.81592627370284   -2.36563114854557    1.99432627482502
H         1.75662498753324   -3.20692145426688    3.13470628065221
H         0.62498697161422    3.01279225590392    4.31867536503463
H         0.80932437624715    5.41493632039726    3.89129221756074
H         2.30078803665446    6.44269907489033   -0.08939401758461
H         2.52081732632062    8.85421159986955   -0.50061164407288
H         1.24574012774097   10.46663813245495    0.86436360181337
H        -0.25998420007239    9.64797541057596    2.64043056137555
H        -0.49433570942654    7.23604672962899    3.04497272677146
H         0.68275368930241    4.68272574813857   -0.31407152849243
H         0.47789512741600    2.27701792058035    0.11040291576816
H         2.91356552158599   -0.39580598133709    0.58281581753458
H         2.59476777627654    1.33277221620417    0.77754629255120
H         3.56664620824461    0.46643030281623    1.97531218915447
H        -1.47027543796938   -1.83373696624865    4.80439052444689
H        -0.18229419165320   -2.96436213581482    4.35697118171104
H         0.09838226417453   -1.74790666740290    5.60122267493507
C         4.29386405261890   -5.11209193774298   -0.88403652273711
O         3.27516589392928   -4.14151858884876   -0.71621769555812
C         2.19622419465741   -4.44175513106839    0.02848048356624
C         2.00368871077248   -5.64949897389786    0.70067939298556
C         0.84916126393224   -5.83862808977794    1.44482281925333
Cl        0.62688760163364   -7.34313403916539    2.28310929927035
C        -0.12928012909183   -4.86592219948015    1.53640211225016
C         0.07385543262732   -3.65743704738171    0.86655525799370
N        -0.89680127149639   -2.64477449372580    0.92127665972912
C        -2.12418282613970   -2.93351105281153    0.63773360017896
C        -3.07770666793943   -1.87044279202356    0.62013127154777
C        -4.38494174720427   -2.02367922265265    0.15988609292535
C        -5.20834192571400   -0.92362870218509    0.04305287458654
C        -4.70019141836715    0.33441668781738    0.37953784439492
O        -5.34227688181215    1.49249522679313    0.30508039436698
C        -6.68765610795514    1.52305660571878   -0.15224426144482
C        -3.37091649785072    0.39627270871198    0.85631913001234
Br       -2.72713182534591    2.10822355095370    1.28906698597525
N        -2.58831089779569   -0.65721086554248    0.99629242448619
C         1.22479602404843   -3.44134360711502    0.12621987525869
H         4.75801833639480   -5.36782485096477    0.07204787165355
H         5.03185619258725   -4.64607547219743   -1.53363356708562
H         3.90622988115561   -6.01501998574955   -1.36261367566264
H         2.73307328064292   -6.43993244068498    0.65474720169739
H        -1.01405121592595   -5.03008134386960    2.12884115173704
H        -2.41662777223856   -3.93503464571867    0.34295525784248
H        -4.73762040065412   -3.00351153070519   -0.11811360605731
H        -6.21700882231942   -1.03352764602995   -0.31968380232907
H        -6.75970314102332    1.15684760084706   -1.17851369957408
H        -6.97769883597798    2.57063081779337   -0.11647528286119
H        -7.33614680076983    0.93909881780835    0.50397968259799
H         1.36102108745553   -2.51402843228750   -0.40676645860129
Cl       -0.26535654309484   -0.19019082217229   -0.82056044867933
