66
 energy: -112.750293964959 gnorm: 0.000505812990 xtb: 6.4.1 (afa7bdf)
Ir       -0.13996932542714   -1.24889801055869    1.59201757227484
C        -1.59094490792294    0.10741154968221    4.33246430803036
C        -0.35453130272500   -0.14419997856261    3.54047770498806
C         0.55582472063558   -1.21874970353465    3.77468406735306
C         0.43719249019287   -2.17585123432377    4.91092695029031
C         1.69101518903104   -1.04064954621598    2.90392845107151
C         2.97649570945470   -1.79574072062718    2.95944338145179
C         1.50550132760725    0.17382499771548    2.17498368165159
C         2.53819725838916    0.83946108762382    1.33874080259918
C         0.21185064883825    0.70714985326897    2.52192097847897
C        -0.27814271234900    2.03599413799513    2.12651232750270
C        -0.60961562462566    2.97309383770994    3.10359317190593
C        -1.03193394907291    4.22940536663927    2.71185389325736
F        -1.34707193487662    5.13148438966722    3.66343214597056
C        -1.14475228346912    4.59864339025876    1.38318887013103
C        -0.80692075951265    3.64603219452528    0.43714656993744
F        -0.90846430756531    3.97049475135180   -0.86786795279032
C        -0.37818599949181    2.37748243591853    0.77812256442016
H        -2.23237233918398    0.83647830550358    3.84644766757459
H        -1.31334412975819    0.49096197931230    5.31504606626657
H        -2.14733518221772   -0.81372089892698    4.48733275584230
H         1.23990803924524   -2.90622341218855    4.90258591246977
H         0.50120265888923   -1.61289320036322    5.84299992269529
H        -0.52260268058922   -2.68801332693525    4.90570531886778
H         3.63140861482454   -1.32965985503996    3.69669736732267
H         2.82026056006342   -2.83137188301625    3.24548865363342
H         3.47567250869534   -1.77014786560667    1.99481603906740
H         2.76403859932634    0.24771225367857    0.45277463765157
H         2.20142877534988    1.82091089493415    1.01638754131032
H         3.45620217059294    0.94473722499986    1.91613414504245
H        -0.51727917707490    2.74689918728040    4.15268511832917
H        -1.47505206589418    5.58373021653580    1.09905810443896
H        -0.14211219407538    1.65913542144543    0.00782083274043
C        -6.59246980797969   -0.52281953226927   -1.22790217324081
O        -5.67590124234841   -1.60416689335822   -1.11628110942147
C        -4.54299500584390   -1.43914313572798   -0.44839385934962
C        -4.13820138958617   -0.26283351192894    0.20380485865035
C        -2.92202170408951   -0.23075437368652    0.85160161652467
N        -2.09600479642220   -1.27156288919547    0.90971805465951
C        -2.46805971867457   -2.41734012862359    0.28331368880772
C        -1.48894183135568   -3.46440830364430    0.36791580796795
N        -0.40150574114413   -3.20924831376492    1.01963691632914
C         0.62567875012834   -4.16684929617750    1.03769248890634
C         1.17009174557751   -4.58627981359784    2.24178622084379
C         2.20291532201043   -5.52566322989081    2.28364692337922
O         2.64430577900886   -5.84758036200457    3.51637636903699
C         3.66663738165732   -6.81928596631374    3.65233089610870
C         2.69967831678792   -6.04386763075332    1.08724109659375
C         2.15980029357288   -5.63491293442064   -0.12048092927084
C         1.12739088413951   -4.72037520251545   -0.14582828598877
F         0.60416724896741   -4.34353618274538   -1.33326824854760
C        -3.67074109586759   -2.53575204039076   -0.39111644936413
H        -6.96507850480528   -0.22239028240390   -0.24654957252571
H        -7.41455495905564   -0.90409785464656   -1.82905984990085
H        -6.13355537123847    0.32898458725904   -1.73406288934809
H        -4.75436073695584    0.62016493216107    0.20761795799997
H        -2.59699204571438    0.67514584813228    1.34139608262057
H        -1.66454694532799   -4.42227756843735   -0.10826093172196
H         0.76389485297688   -4.21442994917668    3.16619599816224
H         3.35350841428300   -7.78310758065819    3.24425613434851
H         4.59020547793895   -6.49289356648493    3.16829543329521
H         3.83210852894919   -6.91500340855732    4.72333808214698
H         3.49905082196341   -6.76549871446869    1.08085352025848
H         2.53113429893815   -6.03001570032769   -1.05233722088286
H        -3.93843490411916   -3.45330651525853   -0.88861155548188
Cl        0.40261328817844   -0.92420332607213   -0.70028864343870
