77
 energy: -138.251877163649 gnorm: 0.000652494177 xtb: 6.4.1 (afa7bdf)
Ir       -0.76699889527359   -0.68019871953986    1.19043402157269
C        -2.27205025655917    1.00301021073660    3.76552257984656
C        -1.05401306090647    0.36995570719584    3.19508587204169
C        -0.69952751373130   -1.00239231231119    3.39910173842775
C        -1.45633454452639   -1.96623341310662    4.24651790040913
C         0.63024844966127   -1.20059166484519    2.88185959544640
C         1.48725519988110   -2.39141364644590    3.13184207766528
C         1.05973726525754    0.01690334626363    2.28260605311326
C         2.43294608698131    0.28893765537132    1.77491419829319
C         0.00383516462459    1.00299509114816    2.46257314283422
C         0.21927653140479    2.44084367467497    2.26452631493648
C        -0.06588348337481    3.33830042544370    3.29291128185872
C         0.25578864293810    4.67200949778725    3.13181908259899
F        -0.01123631846217    5.52513378292859    4.14046219580598
C         0.85887609229094    5.16214322113583    1.98776215057163
C         1.12134181771082    4.25036600952232    0.98129212113967
F         1.70055970849235    4.69137228297850   -0.15266773673434
C         0.81345440737208    2.90841460017857    1.09289106056466
H        -2.43040679570623    1.99451610742705    3.35432405338159
H        -2.15046089589608    1.08077131293596    4.84686664889710
H        -3.15336894606785    0.39164354257619    3.58268304528330
H        -1.21660729064838   -2.99292834591290    3.98497704775241
H        -1.18210726499393   -1.81125361840307    5.29065999382309
H        -2.52797125876840   -1.81349461474793    4.15518882651611
H         2.02043795147043   -2.23903477872738    4.07142353396459
H         0.89758847258933   -3.29872563944605    3.22451853973703
H         2.22019921653786   -2.52608646457636    2.34183045182795
H         2.49931100035512    0.10862220500166    0.70253459335025
H         2.69736280729877    1.32883495534480    1.95173508963017
H         3.15246982774901   -0.35488231663514    2.27351990869079
H        -0.49077503041934    3.01363327050910    4.22741053428565
H         1.11633123742927    6.20343926043303    1.89112670585775
H         1.01901166384423    2.24182511593216    0.27104724338982
C        -0.62858187619383    7.66734501399857   -0.57132684836250
O        -1.07058632229627    6.31662839743478   -0.47215921194947
C        -1.91005472370194    5.99867163806734    0.51349206301354
O        -2.32063932873177    6.78680556497339    1.33701895468124
C        -2.27973605719976    4.55963640339485    0.49096450728562
C        -1.68401904852145    3.66220159448853   -0.39026714982375
C        -2.05628363338180    2.33140727794874   -0.38083647306270
C        -3.05015836879949    1.88628016949179    0.48782168065026
C        -3.56151883288432    0.51293168084581    0.34581775615178
C        -4.92074855817450    0.36378379239851    0.05089361490837
C        -5.43553414626063   -0.87806770380303   -0.27458530920139
C        -4.56769084014077   -1.95655087822126   -0.31853130720255
C        -3.23815525892265   -1.76080630594027    0.04251976329497
C        -2.27619763791340   -2.82370885081467    0.05092084486475
N        -1.08882094998820   -2.55797759749841    0.48541145110712
C        -0.12022726037774   -3.57483095119960    0.51318793247845
C        -0.42520965661828   -4.81779619179514    1.07038894800687
C         0.52502594306105   -5.82160131638343    1.08629333686302
C         1.78065024885747   -5.58607939122806    0.53917601285400
C         2.81791228820654   -6.67400250629430    0.51014130137981
F         2.54315064320436   -7.69098010473813    1.34078332332156
F         4.04082319958624   -6.22604764142682    0.84776522727345
F         2.94760740684163   -7.21630235398100   -0.71874202103033
C         2.09216810833280   -4.34837040261434   -0.01522761470490
C         1.14752161908125   -3.34043906363131   -0.01764482358650
N        -2.74477790940693   -0.54589937202273    0.40495203568495
C        -3.66728289711759    2.79392226379271    1.35068984744773
C        -3.26575345649160    4.11403872430419    1.36915936107175
H        -0.69686149231040    8.15847187452229    0.40104967067405
H        -1.25272215663729    8.19981091883073   -1.29032363150307
H         0.40083106586386    7.63366066031421   -0.92190259062019
H        -0.94410696834612    4.01307301737944   -1.09092208554051
H        -1.60516117984843    1.64443254957424   -1.07753612123103
H        -5.54645701750958    1.24187047354793    0.05203112491393
H        -6.48099974527974   -0.99714396496213   -0.51128351448519
H        -4.90280855360786   -2.93769412622468   -0.61293927654863
H        -2.53638862812856   -3.80318660868172   -0.33508367030272
H        -1.39644822426638   -4.99074270851502    1.50731645084073
H         0.29500967803777   -6.78216797792568    1.52021158046895
H         3.07068422543823   -4.17834795096332   -0.43698885315277
H         1.36910943420089   -2.38056390624604   -0.45683254453261
H        -4.45776284291539    2.46538815437385    2.00794646926071
H        -3.71909594945750    4.82682691750538    2.04089112344662
Cl        0.13755067226889   -0.18274995280217   -0.94969620196691
