73
 energy: -112.819795018384 gnorm: 0.000665032262 xtb: 6.4.1 (afa7bdf)
Ir       -0.72836254766057   -0.94232606534082    1.45379259923487
C        -2.15226417837173    0.98719785534091    3.91156775653155
C        -0.95579120365573    0.32207845826133    3.32063972738554
C        -0.56470636385848   -1.01863721055910    3.67301342918674
C        -1.26326132435301   -1.87878585294957    4.66963199962956
C         0.75391177472654   -1.25415547700265    3.14456159476579
C         1.61974934614285   -2.41213737375108    3.50059804179969
C         1.12253852014347   -0.11906587361909    2.37507772772117
C         2.45204900333339    0.12614798231532    1.74590268326665
C         0.05482166272553    0.87081643580413    2.47611981286304
C         0.22390236934543    2.28859746742996    2.00188309912556
C        -0.93267323499362    2.83457937022401    1.15764193391143
C        -0.58611502485031    4.23486554085681    0.65818362630585
C        -0.31081235586492    5.16983484683246    1.83362707258095
C         0.81921802182335    4.62168226255195    2.70126134409232
C         0.48592881027214    3.21760367566787    3.19884869090269
H        -3.03314603274900    0.35273740426384    3.83845730323139
H        -2.36096336813007    1.94277477180434    3.44534434954547
H        -1.95827522831332    1.15926930545478    4.97106976340608
H        -1.01865128194383   -2.92702832438651    4.52414434635664
H        -0.94308987876970   -1.59450940661573    5.67264976397172
H        -2.34080909337169   -1.75497600502424    4.61196080020386
H         1.03733168470803   -3.31914340034090    3.63819201020233
H         2.37791855931708   -2.59450085166644    2.74452988704496
H         2.12530613367927   -2.18896460935535    4.44106156347661
H         3.04936607410716   -0.78028502570486    1.72831901894408
H         2.33732377437833    0.48778842182661    0.72579420577667
H         2.99027777109088    0.88284194846369    2.31649236123279
H         1.11218084477072    2.31279080600549    1.36383989807090
H        -1.84723686003696    2.89736362769644    1.74753850232189
H        -1.10532773936910    2.16849656808460    0.31079109898951
H        -1.40845688193930    4.62640925372045    0.05630543454731
H         0.29707134545430    4.18656082948104    0.01775974876239
H        -1.21482783487060    5.27422708704033    2.43819508384821
H        -0.04505523237801    6.16174645280817    1.46309615391156
H         0.98722845946372    5.28173466635160    3.55477000808464
H         1.74172351547435    4.59389495359731    2.11667513365113
H        -0.39621676092691    3.26051542292291    3.83799899263539
H         1.31400233081764    2.82912250851504    3.79448373892572
O         4.52138259513557   -6.02269823606932    0.39145147425628
N         3.43969788472556   -6.41776961646240    0.78687739630661
O         3.23821942006910   -7.54533468973476    1.20030627793510
C         2.33733852410189   -5.50135470779221    0.76433200565543
C         1.09183699725241   -5.91594040095050    1.22936796678606
C         0.03043960517201   -5.03586386598758    1.20040267661973
C         0.21451427439138   -3.73657366403823    0.71781262822841
N        -0.85033082701367   -2.83261511400146    0.69359499033657
C        -1.97058929676312   -3.15690573035498    0.12146230335194
C        -3.00214395714183   -2.17526315988422    0.11941537671257
C        -4.24152050171622   -2.32395316853242   -0.51537928634627
C        -5.13666513228556   -1.28265689397070   -0.50167948228510
C        -4.78718752499561   -0.08418808153657    0.14788809326106
C        -5.68790134631472    1.03437569101834    0.17364761768091
C        -5.57539483465720    2.29868934295861    0.72044596364072
C        -6.77402572253865    2.96874106760196    0.42116057527387
C        -7.53593256068601    2.07650266903291   -0.28307182066458
O        -6.89438371564257    0.91779250551408   -0.43495651908816
C        -3.53245299808350   -0.01772514492827    0.76775621608755
N        -2.67232399977042   -1.02207445094355    0.76212664147768
C         1.47048749200761   -3.32659373218802    0.26234304940885
C         2.52849691741340   -4.21020388453865    0.27575193265853
H         0.97497922475607   -6.92167386122348    1.60218037994890
H        -0.93762350836089   -5.33994780103192    1.56628098310231
H        -2.09831169422303   -4.10913314472840   -0.38032613325156
H        -4.46990923908433   -3.25016652862776   -1.01720038024980
H        -6.09613884836017   -1.36479859335208   -0.98654355988366
H        -4.74233912575489    2.69826047689844    1.25931400494160
H        -7.03938665231481    3.97100626304713    0.68639778226103
H        -8.51648194628655    2.15804532661252   -0.70946794369327
H        -3.22415515883816    0.88302128576309    1.27389688277375
H         1.58648735709771   -2.32609548758011   -0.12545990802759
H         3.50357799469901   -3.92352300394120   -0.08618499486979
Cl       -0.19114227141019   -0.26676511295156   -0.77251249677737
