71
 energy: -99.107595684215 gnorm: 0.000430547831 xtb: 6.4.1 (afa7bdf)
Ir       -0.54648239377427   -0.73278250336820    1.40735120851044
C        -1.89504249092796    1.24948782105490    3.86591818775088
C        -0.71464942552889    0.56770973278795    3.25934348796453
C        -0.33351785839893   -0.77770161193687    3.61641247279182
C        -1.02110678015626   -1.61650386227094    4.64061545115359
C         0.97472359968654   -1.02984074202034    3.07557749615424
C         1.83570415133278   -2.19201906445029    3.43334950698599
C         1.33497353715036    0.08959001093719    2.27944793568430
C         2.65749111603309    0.31490061357079    1.62570646326265
C         0.28378098237705    1.09530265570072    2.39579688407387
C         0.45256892159650    2.50690672469075    1.90050652151771
C        -0.70487858722981    3.02971297888843    1.04275173735294
C        -0.37128142194797    4.42365475681941    0.51850967148229
C        -0.10466231381567    5.38208457616961    1.67704262659842
C         1.02923614031664    4.85848385915217    2.55489958466673
C         0.70563975145845    3.46157690614454    3.07831664395118
H        -2.77698554655050    0.61312036903792    3.83155431588848
H        -2.11900069534873    2.19209481976556    3.37996091805098
H        -1.67423169543257    1.44912642657272    4.91531551748492
H        -0.78333938175297   -2.66822142295996    4.50805044404989
H        -0.68642385823662   -1.31680733006657    5.63446109738649
H        -2.09913260658959   -1.49000301671274    4.59529088130288
H         1.24775839363595   -3.09615763883375    3.56833383918830
H         2.58928678901921   -2.38117758984025    2.67481034101606
H         2.34293237417474   -1.97292522167668    4.37374902675170
H         3.23130009278293   -0.60586384820467    1.58091186542095
H         2.53045505597586    0.69446748767349    0.61356008525084
H         3.22653640121592    1.04866155348590    2.19700416293833
H         1.34310085437604    2.52385544133845    1.26505240710107
H        -1.62233439037043    3.09351065459357    1.62820270826166
H        -0.86929847890186    2.34668884211901    0.20792284165530
H        -1.19801029828367    4.79619396643675   -0.09002064877907
H         0.51262667721716    4.37206418620393   -0.12122963244790
H        -1.01074920627834    5.48860287201368    2.27846995508681
H         0.15281785996652    6.36995553866239    1.28949687455847
H         1.19272943359413    5.53613271304607    3.39566718346695
H         1.95162681028938    4.82592293921896    1.97012410545297
H        -0.17837884479868    3.51181199600868    3.71469708641189
H         1.53484251408531    3.09064516302795    3.68416824085748
C        -7.29822610794794   -0.36358037279363   -0.72624391989691
O        -6.30893527966680   -1.38362984277672   -0.74174719729057
C        -5.10558794509266   -1.13925600987618   -0.23520854777257
C        -4.68358626923324    0.07610902845792    0.32679140352917
C        -3.40427495843243    0.18039563704862    0.82965279570427
N        -2.53071231590077   -0.82173835493544    0.82304664259112
C        -2.91011823718092   -1.99731005641086    0.25797857445419
C        -1.86637637154184   -2.98227679819362    0.23526074990939
N        -0.71542947770438   -2.62457002506219    0.70685880665567
C         0.35142159139968   -3.52979557250806    0.71316981675363
C         1.60644264474509   -3.11672015032590    0.26596983609651
C         2.65931317537028   -4.00850304375368    0.25092673468182
C         2.50207948314126   -5.31749737032947    0.70149495290252
C         3.64620899664243   -6.27782481691542    0.67334853921814
C         1.24825379058943   -5.71410137484684    1.15943577354710
C         0.17890111499810   -4.84123993412205    1.15822980981721
C        -4.17671429587250   -2.18781744182401   -0.26806617830186
H        -8.18051113449945   -0.81163604570990   -1.17774172908805
H        -7.52649018275035   -0.05530261471040    0.29621457518836
H        -6.98326629715203    0.49855884393758   -1.31773872807554
H        -5.33398795066549    0.93289650618200    0.37324271230137
H        -3.06574627292051    1.11184655249215    1.25621205285616
H        -2.02869677137294   -3.95990506161766   -0.20287511499314
H         1.72463901570788   -2.10947233529482   -0.10282071019454
H         3.62236471035797   -3.68717203877903   -0.11664869667528
H         3.68190749594150   -6.77623044682251   -0.29601726438275
H         4.59260303815378   -5.76244322793607    0.81638658519994
H         3.53488576599281   -7.04172767958616    1.43844885996265
H         1.10800577388878   -6.72198398296039    1.51969838443944
H        -0.78276945267713   -5.15795151298491    1.53243065383852
H        -4.45548443345531   -3.12924742351800   -0.71124036206804
Cl       -0.12471602484942   -0.08449978628553   -0.85878830717241
