72
 energy: -107.750905404347 gnorm: 0.000505171251 xtb: 6.4.1 (afa7bdf)
Ir       -0.40477476348519   -0.53262040684587    1.48643959994175
C        -2.33990080463971    0.93920675654334    3.91476729340053
C        -1.00343410249317    0.44761378779624    3.48037615512195
C        -0.51411589584719   -0.88216961442984    3.70242509890228
C        -1.22968631473348   -1.93856379818873    4.47474687339107
C         0.87580874160507   -0.90900381627039    3.32610589083604
C         1.87276188586763   -1.95063609196118    3.70203571755117
C         1.20981809332053    0.35732375559444    2.76962175161780
C         2.58940010077333    0.79453083512438    2.42137253956519
C         0.03715850937113    1.20790482056218    2.86415425461773
C         0.07028023986112    2.66967558890784    2.69537297984237
C        -0.27601587876550    3.48363421491217    3.77316884469268
C        -0.18812717305624    4.85553279702177    3.63525448269040
F        -0.52029919405639    5.63345309453917    4.68663363563748
C         0.22841963169855    5.46307899252793    2.46419277411055
C         0.56173753420451    4.62838246245495    1.41159756598177
F         0.96804790845644    5.18471840335020    0.25211084909348
C         0.49387496230325    3.25142063420056    1.50118844414523
H        -2.54935973586530    1.92709839754200    3.51568770185067
H        -2.36163822105530    0.98764974153503    5.00405069984710
H        -3.12944925162051    0.25888009202931    3.60314912463622
H        -0.88956602623311   -2.93205106574726    4.19632254982178
H        -1.03400412565689   -1.79866615602120    5.53860162029786
H        -2.30288316291423   -1.87726451428194    4.31873864853920
H         2.37397179800730   -1.62632957462334    4.61563462962601
H         1.40302037514691   -2.90850365242200    3.90627996030470
H         2.63535911201850   -2.06336951884089    2.93561754213197
H         3.07632196152411    0.06980528433255    1.77277906969692
H         2.58350566583192    1.75855442252736    1.92234160149730
H         3.17809450741180    0.87808937407440    3.33575731269328
H        -0.58356316739715    3.06441568698114    4.71689162857896
H         0.29248281891270    6.53473241049093    2.37624823741849
H         0.74156044117198    2.64670700599125    0.64171663129537
C         4.25738223932794   -3.60662052341802   -0.54077658135642
C         2.97229719583496   -3.89859579511401    0.22539753294140
C         1.77820561985729   -3.02927398821208   -0.19574250051851
C         1.35822375394412   -3.25818946033358   -1.65545835730524
C         1.95554201286220   -2.24580001114178   -2.62863040190684
C         0.60601079773116   -3.36330221173396    0.76220078704263
N        -0.45534338232708   -2.39692431099301    0.68217778310672
C        -1.52617363991970   -2.71046133785724    0.03557841460459
C        -2.53960623395302   -1.70856076807370   -0.11746918560943
C        -3.73537045718462   -1.94378613064630   -0.82204580350518
C        -4.64660110391733   -0.93300286514205   -0.93893859250027
C        -4.33863495742538    0.33735024463809   -0.40899480624945
C        -5.21272753871033    1.43463158610317   -0.54072998522885
C        -4.86245378194481    2.66976263366170   -0.06705921105102
C        -3.61132592186543    2.85630039834430    0.54094704286021
C        -2.74981441564748    1.80577226867421    0.70750066892554
C        -3.09145608942126    0.51568890931748    0.26297415985947
N        -2.24669456514175   -0.53021710749411    0.44864999903938
H         4.17140025985739   -3.89990453917900   -1.58252875164184
H         4.50301850658499   -2.54855822451089   -0.49494223359336
H         5.08106408987450   -4.16740056924977   -0.10400123399621
H         2.71167933691938   -4.95104228090476    0.09355311699562
H         3.16745697358360   -3.74106029616361    1.28811679425229
H         2.03277563146873   -1.97316889367137   -0.06509847634385
H         1.63166512369769   -4.27062701581588   -1.95931529855356
H         0.27207510917036   -3.17165385660175   -1.73743905291825
H         1.60275961627508   -2.44698084117971   -3.63812484525039
H         1.64909111455524   -1.23925272484711   -2.35546836377941
H         3.04002140160481   -2.28145788565640   -2.63533517407619
H         0.98548331154712   -3.37512952945527    1.78258528661158
H         0.22621011629871   -4.35906662685260    0.51370003506468
H        -1.67122074336172   -3.69781019234307   -0.39013536922076
H        -3.91064694149354   -2.91818448220172   -1.24723100001398
H        -5.58771883274860   -1.08179317814698   -1.44531582315734
H        -6.15804792356720    1.28171028899032   -1.03813087787375
H        -5.53309003733437    3.50761328223414   -0.17503036132952
H        -3.32480585334639    3.84114548656445    0.87523382822586
H        -1.77718641222898    1.96290963889866    1.14081756854050
Cl        0.45582715084819    0.33933556007160   -0.53568744047353
