64
 energy: -103.650680962218 gnorm: 0.000800727566 xtb: 6.4.1 (afa7bdf)
Ir       -0.55918879611363   -0.80077337241249    1.16931350432078
C        -1.94102961330855    1.12855842522228    3.67206176637599
C        -0.74638462752313    0.45401363141499    3.09294839083473
C        -0.35158977218222   -0.89797256750349    3.38724475244122
C        -1.03240721262129   -1.78812910617617    4.37093089550275
C         0.95863802865083   -1.10786681223219    2.82993535389278
C         1.86885389292297   -2.24049316504685    3.15176882038384
C         1.30555600106465    0.04481358488601    2.07347985888616
C         2.64248457484891    0.31255295495599    1.47461961171140
C         0.24314705901748    1.02727144582726    2.24670634357579
C         0.36493980909609    2.44879726995172    1.88398395115011
C         0.31224087509644    3.41047566303254    2.89182988723631
C         0.48426105465805    4.74078107139811    2.55995288489579
F         0.43928476091486    5.66344269482563    3.54339917935432
C         0.70257745815554    5.16380297081237    1.26117268078988
C         0.74359147610491    4.18517196160829    0.28309735397510
F         0.95003462147492    4.56127606730435   -0.99544595267451
C         0.58143148671978    2.84230325367646    0.56485184779356
H        -2.10469558768190    2.10224065684007    3.22059326206031
H        -1.78627255702293    1.25879324606348    4.74344193563243
H        -2.83643243551185    0.52442346132746    3.54346008638695
H        -0.79453659468998   -2.83168231933514    4.18555836248894
H        -0.69167341227357   -1.53744275144062    5.37620342299750
H        -2.11035079840645   -1.65625845045286    4.33744196047042
H         2.42174460109917   -1.98864258073566    4.05755400620183
H         1.31957937471724   -3.15911175903818    3.33575818129927
H         2.58629510837459   -2.41029191837292    2.35459531322277
H         3.01272327887473   -0.55766602839062    0.93868189421168
H         2.60415031741213    1.15594159798553    0.79200835662275
H         3.34941045384427    0.54323137358405    2.27241097165725
H         0.16773625058874    3.13519852360258    3.92352654170010
H         0.83554886217500    6.20564817902398    1.02217356042493
H         0.59981534886803    2.11882284597482   -0.23628315370482
C        -1.92101208328186   -3.12969651656831    0.27083546065470
N        -0.73635686570088   -2.71459380678042    0.58933059933571
C         0.34746992889346   -3.60359482931093    0.58318467220219
C         1.53631467717770   -3.22047481694407   -0.03797909712661
C         2.60317086265419   -4.09864077172787   -0.07659585494509
C         2.50523095905738   -5.34617537142108    0.52271688771203
C         1.32887725383940   -5.72029908441251    1.15545215825093
C         0.24686024625995   -4.86028158345916    1.18164265138612
C        -2.96305373538263   -2.14923810890945    0.23677274335620
C        -4.28815566323578   -2.44708106299781   -0.13571790452853
C        -5.20166745221170   -1.43356170047021   -0.20359378052377
C        -4.78337865477063   -0.10652482045791    0.03255313002694
C        -5.65856864873856    0.99049460418008   -0.09219212111446
C        -5.20615053760502    2.26964401367083    0.08855342788134
C        -3.85427522429856    2.50058137463929    0.38974374357718
C        -2.98236397919680    1.45654182212028    0.54314636632408
C        -3.42049879479504    0.12803211960288    0.38688160074756
N        -2.55868550470515   -0.90694972245449    0.54352779367058
H        -2.10551912844600   -4.15443481135803   -0.02994566146481
H         1.58951570016569   -2.25422703831964   -0.51573515864876
H         3.51454817050182   -3.80902333112777   -0.57617833203807
H         3.34414386111617   -6.02369334559220    0.49848783043566
H         1.25333480011270   -6.68678966916002    1.62910571268503
H        -0.66436150952842   -5.14367423468402    1.68620513440729
H        -4.55468409478591   -3.46783568147101   -0.35457364016883
H        -6.23250878232074   -1.62543821922461   -0.45832130540170
H        -6.68943735684896    0.79984724391983   -0.34781317936402
H        -5.87862731187898    3.10661729519254   -0.01519258055349
H        -3.50096967482468    3.51436068583158    0.49600282503216
H        -1.93772473780761    1.63848267057344    0.73733129958507
Cl       -0.09759700676066   -0.20400535105709   -1.09319025351496
