70
 energy: -103.595972012541 gnorm: 0.000516014051 xtb: 6.4.1 (afa7bdf)
Ir       -1.09956460062934   -1.18999895651805    0.46077353479144
C        -2.36995277730352    1.01121345854643    2.81483534329256
C        -1.36774989770447   -0.00964347672571    2.39467862964587
C        -1.53432013840587   -1.42980811851247    2.63316675568640
C        -2.72046015635880   -2.04519143288384    3.29508216032838
C        -0.28168112971334   -2.06584386439877    2.39610849348579
C         0.07323933488958   -3.45946409418277    2.77208132565076
C         0.60712062667824   -1.08746976565347    1.84637080348618
C         2.05712046336759   -1.27460116755321    1.56034356965031
C        -0.05515325895291    0.20403554560809    1.90469287105065
C         0.64283946823702    1.50152993253239    1.66518117436182
H        -2.57423892719959    0.88280957006902    3.87774711346627
H        -3.31127429078198    0.89300708611177    2.28114274004310
H        -1.99384579189875    2.01645603123773    2.65560077964929
H        -3.63303078232284   -1.52172772630261    3.02290190760077
H        -2.82236750280473   -3.09318180635152    3.02316503578617
H        -2.60460862479257   -1.98841600639391    4.37819161849005
H        -0.78554002298181   -4.12316714600007    2.71073436226104
H         0.87469235865389   -3.85153740267563    2.15126389004456
H         0.41842556311535   -3.45910153408099    3.80714936004454
H         2.37544058519256   -0.61144127945645    0.75972807096399
H         2.27105967223368   -2.30234195089584    1.27824749742465
H         2.63655743726519   -1.03613885336403    2.45298483940765
H        -0.03047153856628    2.34349298874916    1.79032739349676
H         1.06050012251342    1.53545798681744    0.66035683224117
H         1.46470699913254    1.60083423804578    2.37340774184079
C         3.43528306404291   -3.11636312107119   -2.04087222972580
O         3.13289356702640   -4.39187620335039   -1.50170560665318
C         1.90166739006452   -4.61526801896298   -1.00524029252307
C         1.66135829306629   -5.90164578847420   -0.50234525022094
C         0.43344164040812   -6.22367020869091    0.03453550372031
C        -0.57156544672252   -5.27392962988054    0.06164409570131
F        -1.76180601032375   -5.59447506300744    0.63155233352708
C        -0.36471782543651   -3.98428980786575   -0.43124338615513
N        -1.36146539923984   -3.00129966648278   -0.38925354713915
C        -2.58262390909785   -3.28480323478255   -0.68814569989665
C        -3.57114917806477   -2.24341591741300   -0.66214942686980
C        -4.90508122949255   -2.54895271501532   -0.85724980992970
C        -5.82676567152734   -1.50320155461580   -0.79848866768705
C        -5.34965843502266   -0.22472522766416   -0.75207414719921
C        -3.94635436728328    0.04785674053930   -0.74247862732305
N        -3.55152177761705    1.30716340586557   -0.98033583104980
C        -2.23102671448564    1.84666515928615   -0.73900571470570
C        -2.33941637423893    3.22696935642837   -0.08614632195488
C        -3.16285912537422    4.18254814469165   -0.94278202244096
C        -4.52811332010577    3.55518327897592   -1.20424551618358
C        -4.32416967108100    2.18800878345553   -1.84849527834273
N        -3.08984634333400   -0.97597761635280   -0.49931659142235
C         0.88771585467800   -3.66386816285354   -0.95431245991912
H         4.46747437109184   -3.18305552578049   -2.37755125090667
H         2.78776954563740   -2.87984498234089   -2.88817991446886
H         3.34580624315574   -2.33485121077879   -1.28316626468489
H         2.45563292236825   -6.62828770669123   -0.54130677013071
H         0.23941289775228   -7.20539581607217    0.43495687814576
H        -2.87877230022328   -4.27233852715715   -1.02513365544958
H        -5.21298540999999   -3.57089479817182   -0.99394577118465
H        -6.88666623022615   -1.70078426142752   -0.79943848609730
H        -6.03590503689910    0.60209862825119   -0.68294765548192
H        -1.68643577239908    1.92544155381974   -1.68574845692861
H        -1.67794429971013    1.16834149512283   -0.09119332427024
H        -1.33486105138367    3.62400836443647    0.05876613875435
H        -2.82175411435036    3.13143998882292    0.88702450518378
H        -2.65462495461068    4.36363121209718   -1.89201109831958
H        -3.27360935300425    5.14102918494058   -0.43446772430420
H        -5.07333147737392    3.44712271659455   -0.26507384189850
H        -5.11925987469118    4.18330673590290   -1.87096103196500
H        -3.74188003082569    2.31906418207867   -2.76932066829144
H        -5.27290151051958    1.73590071655599   -2.12568133850975
H         1.02773755813605   -2.66509944020827   -1.33461266070052
Cl       -0.05390632366742   -0.47816069849588   -1.56568495829731
