83
 energy: -129.162116392847 gnorm: 0.000344127957 xtb: 6.4.1 (afa7bdf)
Ir       -0.92479229583474   -0.72339680238990    1.65687325310095
C        -2.04368093073472    1.35781917043259    4.22803456375150
C        -1.01277436759105    0.45402452896625    3.64930863292359
C        -0.97763397023772   -0.97307237000710    3.87213933419618
C        -1.94767510526640   -1.71724329115256    4.72650373586850
C         0.29406791766131   -1.45768769836651    3.42792691564401
C         0.86600544482329   -2.79526714882349    3.73912908023064
C         0.96354030345506   -0.38676231860821    2.76451376648712
C         2.37888865486271   -0.39866335175300    2.30061256520719
C         0.16031451511945    0.81782734177064    2.94508769711636
C         0.65758520220927    2.18051794641384    2.69931007530023
C         0.75921640794538    3.06596458293870    3.77130854702113
C         1.28100063479741    4.32720884937697    3.55462836782408
F         1.38052204849279    5.17527550014701    4.60037626578507
C         1.70597499717920    4.75509653276110    2.30993682811777
C         1.58712349345789    3.85410242398018    1.26579208318636
F         1.98400110047942    4.24020061916623    0.03547136058368
C         1.07669396157902    2.58165880769926    1.43271543167024
H        -1.91660759331526    2.37591434363601    3.87513470773045
H        -1.94420529055575    1.34954351411371    5.31415975001260
H        -3.04731474187878    1.01653739528969    3.98796400780686
H        -1.94789675016232   -2.77717638079742    4.48841810996522
H        -1.66499288421215   -1.60613108436331    5.77398748770906
H        -2.95375937961664   -1.32637610991446    4.60428618564320
H         1.35530337133300   -2.74108049790514    4.71244668360223
H         0.09444450336748   -3.55839206255057    3.79169307794013
H         1.60761247665785   -3.09527066096983    3.00475139797633
H         2.68085611435996   -1.39762188538485    1.99856475481813
H         2.52364577736709    0.28175721703102    1.46651647728561
H         3.02475905320754   -0.07494219537838    3.11788202555705
H         0.46366182376640    2.77790054939391    4.76685373277690
H         2.11079224355141    5.74194950179379    2.16054775484069
H         0.98245929764083    1.92537541820228    0.58147274922209
C         4.80902537615242   -8.46607020735342    0.45771854623199
O         3.50840000654292   -8.70673115651188    0.95703314495943
C         2.61959108229418   -7.68868943112993    0.98500070382527
C         1.34173851570496   -8.02817188606511    1.49828611454865
C         0.35176399968384   -7.09826923376125    1.57568034752146
C         0.57219760698556   -5.76893896936176    1.14288652623108
C        -0.43547400735815   -4.79439872787552    1.19251530163021
C        -0.18961609842972   -3.50088642393212    0.77399241085405
N        -1.19696646353918   -2.53132871272137    0.83143849548352
C        -2.38951391592810   -2.81210407240141    0.42539020903914
C        -3.41698972664300   -1.81966375158092    0.55417555947334
C        -4.73701762291405   -2.12289098086420    0.26569588949837
C        -5.69600832883290   -1.13772350012342    0.47907742657389
C        -5.28735858875879    0.10217863914439    0.89409721448314
C        -3.91228046313825    0.39808580824057    1.09086060530907
N        -3.52509224811888    1.64981715099335    1.42380085685618
C        -4.47864564887469    2.66247951158638    1.85013791278761
C        -4.95609965012157    3.51941469479868    0.67645259241004
C        -3.74637968425569    4.17683693726618    0.01571153799552
C        -2.72556531606259    3.10804312815484   -0.36536064252531
C        -2.34032863636799    2.26617229316966    0.85481482852904
N        -3.00096468998270   -0.59950541095501    0.99149382566158
C         1.09223595212703   -3.15015920168530    0.29494259885411
C         2.07674480046023   -4.09121243505018    0.21739257232496
C         1.85469151185756   -5.42302310478130    0.63660872929881
C         2.86463899422688   -6.39943746991150    0.56709967112957
H         5.33139140842612   -9.41781325512188    0.53134227622528
H         4.77925175056332   -8.14688585039222   -0.58787315887961
H         5.33112421063357   -7.71598746069042    1.05829284204056
H         1.18908809299111   -9.04607003917653    1.82002411422160
H        -0.61799734869074   -7.36843252048430    1.96484200446321
H        -1.40247962864689   -5.06224854567087    1.59223424397870
H        -2.62069002108968   -3.77197072619557   -0.02306184879502
H        -5.00195813128026   -3.10105713666311   -0.09666603018496
H        -6.74015226371769   -1.33698268689040    0.29708882763174
H        -6.01877070742364    0.88066507975142    1.01706328749798
H        -5.30947659299571    2.20318626195938    2.38337156174467
H        -3.94858421634002    3.30803251871087    2.55658671987788
H        -5.65240453774000    4.27735549096657    1.03624946369592
H        -5.47515839683620    2.89951601501323   -0.05676200991244
H        -4.05558684467813    4.73281636489669   -0.87041674233643
H        -3.29028780055939    4.88586173441942    0.71037471045797
H        -1.82458885063428    3.56828554906351   -0.77179163464655
H        -3.14283323689850    2.45466107256033   -1.13419422337982
H        -1.63023865685896    1.50149727802641    0.55285921538667
H        -1.87798992332224    2.90778184393667    1.60781318154916
H         1.25917274618111   -2.14052504594189   -0.04339935343292
H         3.04761547664752   -3.82510750605192   -0.17283704698736
H         3.82635556486601   -6.10951319012142    0.17480347038807
Cl       -0.21111588322916   -0.09206911794297   -0.55638525648608
