56
 energy: -100.174037881221 gnorm: 0.000656777352 xtb: 6.4.1 (afa7bdf)
Ir       -0.75923767740309   -1.20584838063054    1.19005368586408
C        -2.01340318125855    1.30294705568044    3.18117013876305
C        -0.91401660679645    0.36613019610010    2.81747384133803
C        -0.71281633816236   -0.94208328672102    3.40515434256405
C        -1.55976074457472   -1.54155512348236    4.47194763517047
C         0.57743876586829   -1.41934994589538    2.99262747312358
C         1.26879891112840   -2.61756460306316    3.53967013826988
C         1.12353958770252   -0.46730146060037    2.07223178082250
C         2.51048089622419   -0.44380007679219    1.52976005870429
C         0.20966529081402    0.66201371992517    2.00365494136696
C         0.52267917003545    1.94732312444116    1.32627472078435
H        -1.70428662812859    1.87722003634908    4.05571926054434
H        -2.92495349901762    0.77103011708200    3.44093677694209
H        -2.21980132624938    2.00877940081961    2.38041199493276
H        -2.61335580326520   -1.33216958227349    4.30842000551777
H        -1.41571042114643   -2.61595842361439    4.53358663379974
H        -1.27694440219359   -1.10645494435593    5.43138517534003
H         0.57130796112687   -3.42657777511380    3.73871201140195
H         2.04249844370967   -2.97314273766421    2.86578760401449
H         1.74064385140081   -2.34174431073302    4.48343005892019
H         2.52043085775419   -0.05058534687524    0.51644434439704
H         2.95767496846055   -1.43277129167983    1.53452815955440
H         3.12093758206221    0.21412269568428    2.14912722366401
H        -0.33299381124837    2.61505964982238    1.31764422770954
H         0.84180317510505    1.77389164160110    0.30045373901870
H         1.34311646365488    2.43466426991679    1.85325316573654
O         4.81282249427840   -5.91221748181250    0.09669584905668
N         3.79228293116185   -6.34891720390251    0.59334750091369
O         3.69795226195903   -7.44808189002436    1.10496062047696
C         2.62287747627279   -5.51234692677077    0.57382598710014
C         1.44134167238026   -5.97525847682695    1.14562232329028
C         0.31431642084780   -5.17914242448475    1.11169007925250
C         0.37487087540723   -3.91601118623740    0.51730963388935
N        -0.76066359636078   -3.09524684857835    0.47937613070270
C        -1.85166600239758   -3.52638895016298   -0.07966084546803
C        -2.96473109998876   -2.62992071887522   -0.09694835399044
C        -4.17467814109553   -2.88467031073857   -0.75035781532669
C        -5.16515305845733   -1.92464430553860   -0.73500869239392
C        -4.90687028490493   -0.72562662993031   -0.06530932509544
C        -5.92792057867747    0.38164881736098   -0.01634444269216
F        -5.62433790052007    1.38113961182806   -0.86336540764483
F        -6.00143935179796    0.93699111731200    1.20472396901075
F        -7.15808627383336   -0.03287575325683   -0.33174470416653
C        -3.68266867564830   -0.53077082732722    0.55624694474542
N        -2.73469933834893   -1.45926740653931    0.55519738072701
C         1.56766096888069   -3.45405885574826   -0.04430582301223
C         2.69014543468124   -4.25545971392694   -0.02331183187612
H         1.42310989399298   -6.95255592753745    1.60256209817382
H        -0.60703043418452   -5.52185479466471    1.55553974524960
H        -1.90286300431231   -4.49976071335170   -0.55291097698810
H        -4.31831486517247   -3.82040028219238   -1.26629979912075
H        -6.11340297718785   -2.08700886394352   -1.22375578533533
H        -3.46889467547326    0.39542874088902    1.06997226428802
H         1.58436084790272   -2.48522411630757   -0.51884524980143
H         3.61917608603350   -3.92935817138638   -0.46477093478059
Cl       -0.38312259102755   -0.49117412526239   -1.04824867744138
