88
 energy: -140.305050251772 gnorm: 0.000661633425 xtb: 6.4.1 (afa7bdf)
Ir       -0.51120131236655   -0.64866384758972    1.46895623014118
C        -1.59539005140785    1.02350371626887    4.21278867791359
C        -0.46421488309557    0.40585869294450    3.46703402488547
C        -0.04736767936697   -0.95538523630495    3.61953180162793
C         1.17742285526942   -1.13020935269717    2.87904610820760
C         2.08987572351825   -2.30289119302916    2.98341636973482
C         1.47728450550951    0.09669157680763    2.22256483364510
C         0.44978297196736    1.06132988541168    2.57264565850000
C         0.59523349352746    2.50430862787622    2.35899438712867
C         0.46183535158520    3.38398506498503    3.43350045164543
C         0.71331400429297    4.73028528939125    3.27287921706347
C         1.11205010750870    5.24561197350985    2.04009831694231
C         1.41832699828301    6.67433456409296    1.89191046093391
C         2.46848861386842    7.09688119907114    1.07866597257686
C         2.77085370981668    8.44035483821722    0.95654812856553
C         2.02907380399770    9.38777053264982    1.64334942903459
C         0.98049824948549    8.98060417929568    2.45185390388525
C         0.67868434804065    7.63661940553919    2.57712658108203
C         1.23547524159347    4.36501329895107    0.96674792497728
C         0.97938724612905    3.01763024024194    1.12086059671420
C         2.73240743734330    0.39540308992225    1.47891726137573
C        -0.62343345880332   -1.93565412948496    4.58404353282890
H        -1.30934940631073    1.13695792317073    5.25926343961747
H        -2.47754089623331    0.38739891611649    4.18300533847810
H        -1.84072830679169    1.99894793986854    3.80512791896971
H         2.79529399150551   -2.12217840675656    3.79599892347786
H         2.65531637326506   -2.44624755547035    2.06704395543709
H         1.54352827250578   -3.21529858237702    3.20462989131939
H         0.21062289703532    3.00841084902291    4.41215125657899
H         0.63759325609910    5.38746721438916    4.12597933553978
H         3.06561621710551    6.36650399460459    0.55303792282221
H         3.59062228096305    8.75059715252525    0.32480070284170
H         2.26473730403881   10.43752846918097    1.54708842083601
H         0.39390430329317    9.71575037256306    2.98383709119149
H        -0.15487589926126    7.33241139519009    3.19340865965630
H         1.51351527930582    4.74763982271511   -0.00336048622523
H         1.06094998635689    2.35521902249169    0.27353586489774
H         2.59148515789340    0.26898168217601    0.40574146418294
H         3.02873083705541    1.42797323027704    1.65245721342543
H         3.53027108192035   -0.27047038567601    1.79651912294329
H        -1.68818964529064   -1.77176081835304    4.72399647906453
H        -0.46063011827890   -2.95700963276687    4.24988237153130
H        -0.13216968078329   -1.81527264881314    5.55026804972639
C        -2.23116399823555    8.30997410449458    0.89889980037592
O        -2.39160809535769    6.92195291994552    1.17344456974404
C        -1.75986974564548    6.06864787330044    0.36285744179714
O        -1.03990240046103    6.41888395296749   -0.54545843984614
C        -2.08026731028229    4.65132679680596    0.66947655878618
C        -2.87867849546293    4.28884490635182    1.75214286797872
C        -3.25257549307182    2.97063532680221    1.92056755930672
C        -2.80246507004411    1.98719794109144    1.03700675971920
C        -3.36671803214933    0.62719213953336    1.07222171845034
C        -4.76168395593701    0.52312358112883    1.03367489805423
C        -5.36958285955505   -0.70912994030601    0.87759010782895
C        -4.56197807662598   -1.82539018391107    0.74127844943948
C        -3.18261212956551   -1.66992146958967    0.84256116967645
C        -2.27559699985459   -2.77696484055869    0.73714088085127
N        -1.02037393423016   -2.54787898706750    0.92499079304751
C        -0.10258451057006   -3.60508385273202    0.84751830205604
C         1.06588070858296   -3.44461309150953    0.10322417102067
C         1.93271247424086   -4.51518261928871    0.03534344832228
F         3.06335953903898   -4.38547969723663   -0.68991810290391
C         1.71302189901694   -5.71585550464454    0.68821741883501
C         0.55111652237361   -5.85905514078658    1.44602990990319
O         0.21444171070220   -6.96018773691591    2.14073851029568
C         1.07288156801540   -8.08736895692446    2.10726606158542
C        -0.35652874220604   -4.79730131154613    1.51367761163796
N        -2.58984073453202   -0.46234973326031    1.03884535361317
C        -1.96634021897918    2.34589479889067   -0.01747864117810
C        -1.61818476418967    3.66933431648745   -0.20195126613800
H        -1.17694293279020    8.54448531790297    0.73893386590514
H        -2.79615628567645    8.57996572241046    0.00401541900052
H        -2.61863886164846    8.83611054913289    1.76699632408107
H        -3.22637390027359    5.04713419097317    2.43483743155329
H        -3.90619892386615    2.70152257996299    2.73659516685014
H        -5.34722435109685    1.42622442695110    1.09455603389625
H        -6.44399923278663   -0.79270846449801    0.83925417919725
H        -4.97722791201063   -2.80544670415589    0.57242488047595
H        -2.64282857500679   -3.76270025044582    0.47305626273567
H         1.26548171277897   -2.52995012814380   -0.42942958817417
H         2.44313434697874   -6.50155610758810    0.59266888272283
H         1.19174681555578   -8.46438693684302    1.08865537745237
H         2.05177894004184   -7.85215415482428    2.53236164356038
H         0.58300070904188   -8.84239921838733    2.71817763182081
H        -1.24250165748627   -4.92229594839985    2.11506856719354
H        -1.62918628915842    1.59763362801940   -0.71543587375845
H        -1.01020924815005    3.96821347853535   -1.04134157790557
Cl        0.03536522842112   -0.28003394166373   -0.82088834453073
