74
 energy: -113.669950105736 gnorm: 0.000449973262 xtb: 6.4.1 (afa7bdf)
Ir       -0.63233622907382   -0.49879884814568    1.43411946838875
C        -2.02390109291318    1.27391451355149    4.02414303105473
C        -0.82844129131662    0.62425791019973    3.41803882461927
C        -0.44427252436187   -0.74410200923634    3.63300810201304
C         0.87014984264639   -0.92817258059895    3.07113136841325
C         1.76670748401321   -2.08969877240245    3.32313445296642
C         1.23705857142370    0.27245150939046    2.40532508929933
C         0.17783079965511    1.24743521262095    2.62234736581227
C         0.31359270994644    2.68991678253668    2.36418991698322
C         0.26146297273075    3.57910666584395    3.43705171812226
C         0.45812604979056    4.93027161323076    3.23532286286524
C         0.70960333155840    5.43534291131293    1.96045042794963
C         0.94404374426116    6.87235826073844    1.75406727567324
C         1.93980302093902    7.30685983829747    0.88121971444393
C         2.17306248100126    8.65714762951156    0.69568592823783
C         1.41165285286673    9.59559433506121    1.37335373487999
C         0.41590490658460    9.17483863609133    2.23995128611734
C         0.18555391408521    7.82490520388820    2.43191028218553
C         0.74507787135239    4.54369158309011    0.88937014686877
C         0.55186902855610    3.19075697367864    1.08578407755531
C         2.58000043943518    0.57258457820756    1.83599505188706
C        -1.14007149173431   -1.69269038025638    4.54929230486952
H        -1.86302957315992    1.37213183348528    5.09835834358816
H        -2.91811156880699    0.67113507902287    3.88084706504250
H        -2.19002488469584    2.26174931097398    3.60434986547508
H         2.29065109133554   -1.92164372364389    4.26489323223687
H         2.50972106561846   -2.19236228875693    2.53776912818591
H         1.21075945433989   -3.01930075113067    3.40863583799736
H         0.10027309573685    3.20509234983389    4.43628389912530
H         0.44425943070161    5.60154560995308    4.08078522972434
H         2.54953913955499    6.58189712720895    0.36161971515984
H         2.95335205329768    8.98005888330258    0.02162355203463
H         1.59379104213314   10.65019347020937    1.22676209677962
H        -0.18263575071003    9.90333657773016    2.76775773297876
H        -0.60157271273975    7.50665218583187    3.09975790732488
H         0.91253261196026    4.91661070137614   -0.10990056764934
H         0.56421297741415    2.51758619371482    0.24133987994564
H         2.94835573604298   -0.25443050692643    1.23403829344659
H         2.54887296545754    1.46840897839815    1.22294411900338
H         3.28304054001402    0.73537829639901    2.65381219793540
H        -2.21794403501909   -1.56248146432777    4.50248143990225
H        -0.89415788148352   -2.72346707882181    4.30939159808840
H        -0.82090991891104   -1.49882554970707    5.57408027175489
Br        3.71561125852351   -6.38287463781117    0.45366607723982
C         2.26674666900776   -5.12789731912520    0.55233159252944
C         1.06470230051890   -5.51505540958088    1.12734171691131
C         0.01997958008337   -4.61353510940791    1.19113479137593
C         0.18042478241295   -3.31878745127640    0.69350014969444
N        -0.86509656060829   -2.39062898748288    0.74494258315811
C        -2.06213409686160   -2.73672438202071    0.39123180208993
C        -3.06495620589936   -1.71684409791544    0.40623181586073
C        -4.39917364688116   -1.95145221388357    0.01976087965026
C        -5.27942753277197   -0.90708389175344    0.00428366742920
C        -4.81707822544740    0.39220825005252    0.30462402126519
C        -5.65571911355500    1.52207368619793    0.23828208381580
C        -5.16040341117905    2.77521546741374    0.47979753993618
C        -3.80076293182906    2.94671508915189    0.78535946664417
C        -2.96389651285318    1.86813660091044    0.88564975466868
C        -3.44678277301467    0.56382437425310    0.66773803697529
N        -2.61963641818690   -0.50540012234858    0.77500732934661
C         1.40101656476509   -2.93795817300000    0.13443008197028
C         2.43934937913516   -3.84405912323799    0.05327497838891
H         0.94771514303158   -6.51284164270973    1.51903466508327
H        -0.91142408131905   -4.90401938491479    1.65263815214166
H        -2.28593905535343   -3.73196809945428    0.02482363912726
H        -4.69895872140911   -2.95129015183311   -0.24746941582503
H        -6.31614820045523   -1.05286278477037   -0.25727007949119
H        -6.69293852388059    1.37787757402301   -0.02224899313653
H        -5.80581536919656    3.63747719474404    0.42080909406888
H        -3.41211620355055    3.94121151211449    0.93820087609906
H        -1.91355423470701    2.00646663902089    1.08498910319752
H         1.50663423727087   -1.94103118631932   -0.26614531707250
H         3.37836205620076   -3.55902759439767   -0.39322439078587
Cl       -0.09168842152180    0.16370357462153   -0.79703197163784
