68
 energy: -118.681533309285 gnorm: 0.000171459068 xtb: 6.4.1 (afa7bdf)
Ir       -0.38457616578052   -1.33786880191628    1.09444831880002
C        -1.51098179386666    0.35033576590675    3.85118787539929
C        -0.37116889964719   -0.23402280427810    3.09769485208440
C         0.10338311102898   -1.57657791810636    3.27098697520480
C        -0.41852284728469   -2.55483597345019    4.26685018406114
C         1.31762383694333   -1.71950691953431    2.51576527268207
C         2.29891374940385   -2.82914842274978    2.65714334169941
C         1.55513749113925   -0.48755948404618    1.81972017240899
C         2.78568327614464   -0.14745609758731    1.05497164179275
C         0.50485838327753    0.43744646741750    2.18171066983871
C         0.55731430063135    1.87752231188023    1.89996849000986
C         0.42822901660958    2.79356544541930    2.94229543194919
C         0.52649495633695    4.14365575569252    2.66539921877772
F         0.40329440788832    5.02113062030481    3.68272271209830
C         0.74886052261556    4.63129028764450    1.39049653391728
C         0.87903010013109    3.69611400436847    0.37844050303539
F         1.09755878858249    4.13372114174201   -0.87867233669610
C         0.79396604923172    2.33679345922557    0.60500962365672
H        -1.80017385133335    1.31654757090988    3.45085185728769
H        -1.21362572390129    0.47486397431355    4.89339295145951
H        -2.37193819046456   -0.31483973821309    3.83995810204734
H        -0.18965797580925   -3.57463907735635    3.97000900237998
H         0.05608825123751   -2.36862341738008    5.23075807845104
H        -1.49218274922242   -2.45194973071384    4.39512009173897
H         2.96906174614447   -2.58353131608238    3.48262997525824
H         1.81143790449020   -3.77158639852033    2.88783704609068
H         2.89496071780627   -2.95110529213547    1.75831011117003
H         2.65461106760874   -0.35146082694635   -0.00712949969690
H         3.00623862603712    0.91253617816557    1.16036311848593
H         3.62783280550741   -0.73221674807289    1.41441490038749
H         0.28169178700465    2.47369046531365    3.96013996027848
H         0.81750585002742    5.68810464372765    1.19437543574795
H         0.87200399868330    1.64934139036004   -0.22200752637534
C         6.17172967991762   -8.29162953744965   -0.70596604157294
O         4.92646806990794   -8.34129377521434   -0.03505125526542
C         4.10258476719758   -7.27605393762420   -0.07328291407496
C         4.39262158939625   -6.06388708271257   -0.74068071387459
C         3.49295936683471   -5.03636387680243   -0.72857020700624
C         2.25603931292939   -5.15138814540599   -0.05627885304015
C         1.32419070550813   -4.10387135152574   -0.02525724264656
C         0.10532709840552   -4.26687227323507    0.60565308217132
N        -0.83014514351998   -3.23630452892923    0.56758758025648
C        -2.07051196233159   -3.51664097171866    0.29617825488682
C        -2.98979129541528   -2.43276219574190    0.20465760973480
N        -2.48804672520531   -1.20989263466949    0.51218961715570
C        -3.26407264710506   -0.14801662559755    0.31347549448143
Br       -2.54259031890584    1.56142969740928    0.63849568809611
C        -4.57879698056871   -0.22780535705818   -0.12844056807195
C        -5.12512802755909   -1.47202250484952   -0.40846260949596
C        -4.30958221539851   -2.57409431341579   -0.24868858894209
F        -4.75937610042214   -3.79992083694269   -0.53076075601446
C        -0.19862715119786   -5.48925971540474    1.25763440208326
C         0.71217949239326   -6.50048160818508    1.27407053050615
C         1.95917727997795   -6.37516595180027    0.61231496923965
C         2.89612513124864   -7.41142975228864    0.59559008617974
H         6.81235572292721   -7.50514096566952   -0.29843969453383
H         6.63321517671165   -9.26105840666236   -0.52897063377691
H         6.03877634911219   -8.14460142393969   -1.78108172632192
H         5.32662427620715   -5.94584264398863   -1.26591761340120
H         3.72112725853398   -4.11473344934148   -1.24205270557827
H         1.53108033656502   -3.17979998622194   -0.54530499609445
H        -2.39255442971385   -4.52421378588430    0.06089688997691
H        -5.15810048286126    0.67338753251402   -0.24734494319293
H        -6.14134016842586   -1.58231468680846   -0.75243285104339
H        -1.14237476559572   -5.58959097812999    1.77131326157213
H         0.49315503535782   -7.42178691348877    1.79126423528908
H         2.68656000372310   -8.34233440550076    1.09804205366709
Cl        0.01596421417938   -0.81535312305329   -1.18447292676346
