72
 energy: -125.554763888755 gnorm: 0.000173096591 xtb: 6.4.1 (afa7bdf)
Ir       -0.61437918568567   -1.36996547883386    1.23819672750327
C        -2.03437522251416    0.38862617117659    3.78391214185747
C        -0.80724490016751   -0.18173305448974    3.16203484556308
C        -0.25553510054973   -1.47254420761737    3.46297142547877
C        -0.78546793222570   -2.38672272349680    4.51358489493235
C         1.02044257010254   -1.57197059752852    2.80075703066636
C         2.07066759073994   -2.60196200769452    3.03346741338182
C         1.22138286304774   -0.38388030090933    2.04265025479895
C         2.48859998862978   -0.02092731707642    1.35481417380651
C         0.07544914188610    0.48364038937167    2.25328067925380
C         0.03257323530691    1.90998366649975    1.88774324216273
C        -0.03836714708258    2.86601988143217    2.90057119343201
C        -0.00958888173845    4.20560990126299    2.56196927956909
F        -0.07204799344701    5.12278780756433    3.54841144976573
C         0.08418295689796    4.64243893813565    1.25243136696748
C         0.14556812556445    3.66853022636200    0.27086508631254
F         0.22962663965126    4.05728665898358   -1.01787823101618
C         0.12045017415899    2.31670444360085    0.55870538937588
H        -2.30832054547708    1.32929129292252    3.31487264236797
H        -1.84153206339652    0.57348398754081    4.84102816134190
H        -2.86886822944041   -0.30638981953429    3.72304931676539
H        -0.39166636296828   -3.39149978689112    4.40091169894609
H        -0.48153062086314   -2.01244212443529    5.49199487569651
H        -1.87104005323788   -2.42316369374123    4.49124873692570
H         2.82909833354008   -2.18139903945416    3.69476798401646
H         1.66093424544419   -3.49027934068958    3.50103152358905
H         2.55805561302004   -2.88235732364784    2.10245418826015
H         2.79120219926912   -0.80033878612409    0.65810149874040
H         2.38472987179887    0.91117931663124    0.80787428439238
H         3.27957247163121    0.08805261500152    2.09731916277144
H        -0.08665213430093    2.58154689691411    3.93879898984003
H         0.11117649488573    5.69123745960043    1.00839869127006
H         0.15643921972269    1.59244205810152   -0.24062697717955
C        -0.77081320512448   -3.12201537903696   -3.51761803252195
O        -0.47402840976802   -3.71986700050876   -2.25745647878911
C         0.80156425304013   -3.71688331504044   -1.86590598317863
O         1.71889668899438   -3.30263323245445   -2.53057004437291
C         0.97653574298964   -4.40825442183771   -0.55047100942198
C         2.04010662410226   -5.28762213935945   -0.45185238903576
C         2.25985638245363   -6.04757147927192    0.70211107893071
O         3.31649153323338   -6.87748200589419    0.67047469268217
C         3.59662446956957   -7.68312672724811    1.80310921880761
C         1.37966820013581   -5.89873246085645    1.77537460585681
C         0.34709700279579   -4.98356612402386    1.70011112405165
C         0.13017813590115   -4.22446493167658    0.55497072439320
N        -0.90044796029238   -3.26566076275421    0.54784335456453
C        -2.01045846695010   -3.50077408797332   -0.06883038609510
C        -2.95971388012227   -2.43138712280299   -0.11627624150450
C        -4.18718459342353   -2.49738106184210   -0.78199595566863
C        -4.98421426852437   -1.37834002149924   -0.81691403702881
Br       -6.66834734388738   -1.38058253474177   -1.69064569329690
C        -4.55137688991441   -0.18371960002806   -0.19436939934526
O        -5.35834187762484    0.86227064411363   -0.27728157113055
C        -4.98136409062106    2.10484780821039    0.29803309990513
C        -3.31941674845763   -0.21617927055670    0.46583697702251
N        -2.55443355733005   -1.30311991229873    0.51147707117349
H        -0.76206702784921   -2.03543247416262   -3.41558284305017
H        -1.75966952476666   -3.47472480354324   -3.79606484192919
H        -0.02817026904735   -3.41549549897764   -4.26092907863347
H         2.70890913626627   -5.40650950893592   -1.28933902235228
H         2.77529062593623   -8.37379929415931    2.00939951780917
H         4.48789862251658   -8.24904221073684    1.54083230222693
H         3.80133504295404   -7.06932204776671    2.68339722654096
H         1.49431326426710   -6.48677683301015    2.67089381143673
H        -0.33285081662326   -4.87065418846553    2.52962677356028
H        -2.20793562483104   -4.45220779237882   -0.54628698834876
H        -4.49226963891395   -3.41108571316531   -1.26568556244503
H        -4.88715462012156    2.01865512968858    1.38196942216637
H        -4.04934148088534    2.46884671277278   -0.13803244988304
H        -5.79149785220249    2.78895439130666    0.05540787619269
H        -2.93906929761380    0.66169258382751    0.96480838916948
Cl       -0.00319764266839   -0.86064342165908   -0.99890540001090
