73
 energy: -107.621121775480 gnorm: 0.000487246814 xtb: 6.4.1 (afa7bdf)
Ir       -0.31180308672662   -0.76715855302601    1.95036862070402
C        -2.35997714050101    1.34157729215542    3.75412774730804
C        -1.06185140023427    0.63445992628533    3.56779096383337
C        -0.81581597076988   -0.67267272274056    4.13275349631074
C        -1.79685878236140   -1.45861238571096    4.93393751872869
C         0.59687430571831   -0.91472732326705    4.10287502279900
C         1.27230109503673   -1.94768074823730    4.93546577736162
C         1.19767890302726    0.13703021400251    3.34940801039949
C         2.66236407680711    0.37122418776830    3.18321154164490
C         0.16392622370431    1.12696079581075    3.04591574871026
C         0.49386607787111    2.51026435334277    2.55658114025642
C        -0.38202888098356    3.04783860189570    1.41988936939427
C         0.14092436889675    4.41066212195613    0.97294718434191
C         0.13379828590973    5.39551348486154    2.13968892658782
C         0.97031724120502    4.85895651580237    3.29826509591740
C         0.46251940461311    3.49016907893219    3.74250055339527
H        -3.20642477203350    0.68546708930820    3.56132531054616
H        -2.44729091028165    2.22644437223226    3.13417827499722
H        -2.42324781999063    1.65414316638256    4.79776465429153
H        -1.53030647304675   -2.51138165744842    4.95432484280329
H        -1.79665228869190   -1.08942935144986    5.96046050813198
H        -2.80492862855904   -1.35622937799410    4.54198268890268
H         1.15706363706368   -1.65272561160895    5.98002493194550
H         0.81255412158798   -2.92664612163559    4.82339418745015
H         2.33387246936291   -2.01450611219268    4.72131237775178
H         3.22972863353880   -0.53108928948537    3.38782332790194
H         2.89129129532739    0.70359863336051    2.17311431358690
H         2.98490528760998    1.14797634312681    3.87696862920400
H         1.51794897065988    2.48424622248946    2.17249332452998
H        -1.41619399403243    3.17044021550019    1.74235113164747
H        -0.35913774911921    2.35080649913848    0.58173170250220
H        -0.48021253455516    4.79290059481061    0.16035124859364
H         1.15841957431473    4.30585009923166    0.59006350174236
H        -0.89406853572708    5.55493419459181    2.47487961466682
H         0.52786863710711    6.36004899848860    1.81363107282302
H         0.92993904807357    5.55433224009850    4.13906488211688
H         2.01292805928066    4.77836308136704    2.98248372337113
H        -0.55805088241652    3.58642299961125    4.11478015974741
H         1.08402195293911    3.11027671295371    4.55512343724348
F        -5.75857336995411    1.19753635297491    1.20481677303772
C        -5.22579198721886    0.84545421794354    0.01802405639100
F        -4.64611316367687    1.95315475193171   -0.47038549408124
F        -6.24775637109133    0.54758926721069   -0.78882707007616
C        -4.24691463175493   -0.28857658643178    0.17197869760873
C        -4.55328339498000   -1.58208176382297   -0.25636631081869
C        -3.59570087287404   -2.56230899707707   -0.09015961677745
C        -2.38407568163999   -2.23525111103193    0.52390128825171
C        -1.26222960478535   -3.11733240476563    0.62718865450147
N        -0.16410364129269   -2.66230652307594    1.13812489559148
C         1.02357804273131   -3.47393776969064    0.92317227238872
C         2.21886631108961   -2.99133304295056    1.73288467475028
C         3.44415271912058   -3.86230440536656    1.45496558700752
C         3.79698004538558   -3.84395031787693   -0.02819376628488
C         2.60095336759618   -4.30792442290634   -0.85187896147893
C         1.38549506795237   -3.42993584614661   -0.57604233131147
N        -2.13041107458758   -0.98683482742975    0.98810433535098
C        -3.02923568547584   -0.03240741756543    0.78507681279776
H        -5.50375286821710   -1.79660276461981   -0.71973723966415
H        -3.76897541159739   -3.56921766235190   -0.43423186421682
H        -1.32070699913360   -4.10995677074088    0.19404043310904
H         0.78907764357560   -4.51094737762089    1.19588122200701
H         1.98070214122511   -3.04023479049935    2.79100333882128
H         2.43298497638048   -1.95846457186530    1.45468006235350
H         3.24160901795419   -4.88919282932046    1.76743198365885
H         4.28911770949115   -3.49775258054107    2.04042602563827
H         4.65395758347157   -4.49252306948311   -0.21624705385281
H         4.07147221057235   -2.83080398446546   -0.32785955601671
H         2.83857149585802   -4.25909769514131   -1.91581708333406
H         2.36896952098486   -5.34725949158422   -0.60811016794831
H         0.53947396967631   -3.76565590375468   -1.17693718948017
H         1.60398156642623   -2.39680517272482   -0.84737832978821
H        -2.77346584178746    0.96700411881800    1.10423825824613
Cl        0.62575339098573   -0.00707138874742   -0.10115490056857
