72
 energy: -107.222023030946 gnorm: 0.000779868356 xtb: 6.4.1 (afa7bdf)
Ir       -0.22706687446328   -0.34518908355450    1.65848560718047
C        -1.64706728735919    1.69190684828999    4.01767545648160
C        -0.43459052566857    1.07232786614197    3.40841862667817
C         0.08923489054365   -0.19511273672433    3.85167280243682
C        -0.46723173200876   -1.00374646191766    4.97401576623039
C         1.39116725539363   -0.37254323124887    3.26318585894075
C         2.37035524915534   -1.41811464652783    3.67127886504797
C         1.61237576376763    0.70667443169197    2.37006025226731
C         2.87378389963506    0.99042906032585    1.62712638059845
C         0.47239959439493    1.61410561736933    2.45149414095831
C         0.49032290007408    2.99317592104078    1.84770443429938
C        -0.74493687260433    3.34826312435089    1.01317093804424
C        -0.56219352135679    4.72454571744489    0.37888896496918
C        -0.33472044316525    5.78423751350900    1.45451690870684
C         0.87819690790229    5.42750116724323    2.31013674397519
C         0.70611937133746    4.04945743873684    2.94337557440116
H        -2.46087205786786    0.97345708992193    4.08879172080087
H        -1.98683930882983    2.55991453767131    3.46494030869690
H        -1.39719917418182    2.00762029809910    5.03149361083059
H        -0.11490287192468   -2.02982809359522    4.92708050793317
H        -0.13700956756444   -0.57492908114405    5.92080393027898
H        -1.55341356563440   -1.00001505224051    4.96319078718184
H         1.88209577308721   -2.37122037135953    3.85667857259683
H         3.13872300678089   -1.56555221195871    2.91875082615672
H         2.85326016203432   -1.09913690177256    4.59583324567764
H         3.51897790318082    0.11692037744872    1.60312664297091
H         2.66141178748642    1.29023670134481    0.60273084209445
H         3.41112108445861    1.80339769691248    2.11615656694417
H         1.34816660273147    3.03958621277604    1.17030052217823
H        -1.63802387048950    3.37487469508631    1.63755670817367
H        -0.88115298991021    2.59422648135106    0.23618441395171
H        -1.44491983573949    4.97806271166195   -0.21173469592817
H         0.29411649920641    4.70486835813741   -0.29887129034422
H        -1.22034915616890    5.85512175491674    2.09071775066522
H        -0.18361367072507    6.75988319332862    0.98814016011929
H         1.01404345782950    6.17635684173074    3.09323337114490
H         1.77463120056940    5.43408355866329    1.68550826191726
H        -0.15006244409068    4.06788232432256    3.61790000435864
H         1.59138419160106    3.79690888009086    3.53025781770434
C         0.74184718592843   -7.00133232195074    2.88880449694512
O         1.92638233144634   -6.44480999982431    2.34352412724508
C         1.88790965089715   -5.21230553662299    1.80689116362469
C         3.09731738653855   -4.74180428869018    1.27870996947718
C         3.15728313923821   -3.48594765574450    0.70958869660302
Cl        4.65808798733213   -2.91581052044681    0.05204297133290
C         2.04383003586371   -2.66189286876915    0.65708405635163
C         0.84453744908755   -3.13429847304377    1.17748961731144
N        -0.28394152914023   -2.30328283735091    1.11987461346026
C        -1.40625974220150   -2.76043139183398    0.66828208451792
C        -2.50697267701423   -1.83999977847430    0.62431704309085
C        -3.75131479412866   -2.13946232930489    0.09624295403113
C        -4.74235811347823   -1.14934455354717    0.04917789269776
O        -5.91567731874600   -1.49592759887219   -0.46474853555733
C        -6.96045382422242   -0.53577464578382   -0.54329892806242
C        -4.40547433251639    0.11946025373012    0.54775625743499
C        -3.14351382521494    0.33200544102309    1.06033747905195
N        -2.20674532602299   -0.61044689374013    1.11964985677339
C         0.75564168377022   -4.40301537235348    1.74939813417942
H         1.02629641229821   -7.98799168699251    3.24756562273876
H         0.37285452193773   -6.40322305372465    3.72552218915346
H        -0.03484792833850   -7.10199749755317    2.12696228570535
H         3.96498093830670   -5.37793312713553    1.32942923401609
H         2.08475895353239   -1.69127349600152    0.19117937274954
H        -1.50538193946395   -3.77119079810409    0.29054900429468
H        -3.96448348975826   -3.12093889045358   -0.29305842538599
H        -7.24004965436688   -0.17875423569943    0.45014882643652
H        -7.80109024744407   -1.06065681639282   -0.99146131921091
H        -6.67414387256300    0.30476225232648   -1.17869121079260
H        -5.10757684840034    0.93588712637681    0.53739743743701
H        -2.87172948972707    1.30490240064855    1.43954567309922
H        -0.18537503060958   -4.72576703249399    2.16383240611648
Cl        0.10415557580700    0.12568367915005   -0.66617495418584
