77
 energy: -122.872624458937 gnorm: 0.000413922468 xtb: 6.4.1 (afa7bdf)
Ir       -0.49942901101875   -0.66779981107004    1.52781378285961
C        -1.52179879247774    1.04564849265194    4.34250798355700
C        -0.43726258461526    0.38178062492778    3.57166591621415
C        -0.08730329538958   -1.00318391392281    3.70203991926782
C         1.12984335831757   -1.22504235640376    2.96875351667120
C         2.00894097029884   -2.42025277886295    3.09332999953703
C         1.47954248813188   -0.00124540049118    2.31560967772948
C         0.49992131591489    0.99980946575734    2.68437157417234
C         0.65774074877702    2.44276160680887    2.44899621248292
C         0.70782538915049    3.31397856173853    3.53523638159968
C         0.89249763842007    4.66794526678365    3.33837501235551
C         1.03308985006289    5.19261616192801    2.05501719926439
C         1.22996058892118    6.63518400226366    1.84814612408635
C         2.14692906890506    7.09723699348956    0.90603322805817
C         2.33742512228632    8.45357410951072    0.71597932990548
C         1.60976278327578    9.37023123401142    1.45750136704803
C         0.69205172741462    8.92182954099635    2.39363777441570
C         0.50573720795909    7.56585383380657    2.59069900462524
C         0.98480809397249    4.31597761935031    0.97181290772527
C         0.79981780860880    2.96181000368626    1.16344119865337
C         2.76506299049967    0.26494011950190    1.61771452776012
C        -0.71160419681001   -1.96091726283553    4.65769567323471
H        -1.24336589592715    1.05725085831147    5.39723711839744
H        -2.45773942343881    0.49744099823214    4.26002878164972
H        -1.67498656999385    2.06617737905745    4.00666778988852
H         2.66899499461604   -2.27022092501998    3.94862165346262
H         2.62851873021271   -2.55480260217848    2.21204508339137
H         1.43556721764975   -3.32685076562717    3.26228766326998
H         0.63133022762613    2.92626111369264    4.53893423549923
H         0.95125684797417    5.32690720374339    4.19150958861087
H         2.73017430549145    6.38960481681547    0.33496445653355
H         3.05757326429450    8.79845620790260   -0.01204841048858
H         1.75786924042258   10.42948978821836    1.30659705889705
H         0.11950793460591    9.63320292506829    2.97125532213219
H        -0.22258845337360    7.22509824679671    3.31217384209053
H         1.07507368067106    4.70514970229912   -0.03165819729928
H         0.73306940530727    2.30228653050779    0.31146540640236
H         3.09808238782043   -0.60647665948658    1.06091671735478
H         2.67772489969247    1.10868142944768    0.94047783325593
H         3.52392579635815    0.50190793786729    2.36514582911247
H        -1.77375743150553   -1.76433663226668    4.77290714894847
H        -0.57021674515707   -2.98808936464892    4.33268441401418
H        -0.23910083902117   -1.84822399893870    5.63422074326279
C         3.44675218100913   -3.27260491547152   -1.39004279195489
O         3.11452127299138   -4.44637593536371   -0.66982735476295
C         1.95981160142500   -4.47759614858676    0.01718042641847
C         1.05732325006983   -3.42584047825794    0.12815630059681
C        -0.12828209319335   -3.58453245100788    0.84599517032560
N        -1.02613054798862   -2.50559729301062    0.88414553162386
C        -2.25694451661819   -2.69937917974203    0.53058780276643
C        -3.11723823767396   -1.55828282959957    0.48365058247447
C        -4.40318944916927   -1.59351503948197   -0.05763627766455
C        -5.11902919680910   -0.41780245621000   -0.13130550695963
C        -4.52558690122811    0.77497763574093    0.29473280824076
C        -5.33450247199237    1.93219579906919    0.28820472620757
N        -6.06671491855648    2.81535532761820    0.29403375623844
C        -3.19979241282329    0.75428460975592    0.78049915176365
S        -2.28144313706711    2.14346434138437    1.27239692123207
C        -2.90564498907967    3.54233231345975    0.30156844833654
N        -2.54502321916319   -0.40983319761598    0.91446000143073
C        -0.42476908327661   -4.78400794846232    1.48576664085486
C         0.48129648393781   -5.82926401416869    1.41088282313407
C         1.64272161794537   -5.67487976741386    0.68457269532037
F         2.50830316603570   -6.70564248806172    0.60733456241522
H         3.57127039624452   -2.41931229936647   -0.71924860009959
H         4.39341987831125   -3.49219102374349   -1.87849995447140
H         2.68957210435524   -3.04237486267281   -2.14291518939487
H         1.22985367591075   -2.48411424729499   -0.36847628332968
H        -2.60628225273653   -3.66990625922328    0.19816886195228
H        -4.81660017528134   -2.52463362015062   -0.40645128744366
H        -6.13017725382451   -0.39988530833480   -0.50855253625843
H        -2.07539700533306    4.24348451052446    0.27912700900951
H        -3.13964264875790    3.21652385124140   -0.70593590992973
H        -3.76509750776581    3.99926640596598    0.77920306881731
H        -1.33462876037805   -4.89089729902545    2.05361845719902
H         0.29261001094018   -6.76903759278722    1.90397611396663
Cl       -0.04335870539690   -0.08588844315927   -0.72579355765926
