59
 energy: -96.144558937741 gnorm: 0.000530447242 xtb: 6.4.1 (afa7bdf)
Ir       -0.70179794327936   -1.12531696721114    1.30646860740980
C        -1.78554468922617    0.91734437398394    3.97478778803300
C        -0.74154702624406    0.14452609712925    3.25062967136752
C        -0.44792206918434   -1.24407406182733    3.52337390455105
C        -1.15095499299789   -2.07865574375849    4.53950107393625
C         0.81151347731317   -1.55900584734907    2.91240370015703
C         1.63439205678750   -2.76216487303393    3.21317488521990
C         1.21083607326619   -0.42750570775574    2.13241136495540
C         2.51569295958780   -0.24300097562252    1.43938461977402
C         0.24633595598899    0.63733577745108    2.36047509447011
C         0.44534555623974    2.04552383626816    1.91617746021254
H        -1.50208265388437    0.96224092508760    5.02696459721643
H        -2.75829533475140    0.43514329456751    3.91621889315330
H        -1.87183127835109    1.92957742300729    3.59493671142151
H        -2.19854266738697   -1.80253934242903    4.61535629775198
H        -1.08173777787955   -3.13643406939631    4.29893372039704
H        -0.68714731847184   -1.92314367196334    5.51425623884242
H         1.01484153902252   -3.63322643089989    3.40814077235790
H         2.32263681297790   -2.98960010531892    2.40463625929490
H         2.21880518244140   -2.55708011576240    4.11120668581295
H         2.38494933702757    0.32205430714502    0.51961878824101
H         2.97757885444315   -1.19665412880150    1.20235179642065
H         3.18806795449936    0.31896020244190    2.08797033522167
H        -0.45686982432433    2.63491007841217    2.04671353935584
H         0.73083121248617    2.07920596977424    0.86727184501984
H         1.24899273770798    2.49511419250678    2.49957072106552
C         4.72741251151029   -4.65195727066116   -0.93480168267682
O         3.58230637934796   -3.83424466036481   -0.76640659922117
C         2.49375133202804   -4.34346390145280   -0.15733950863253
C         2.40306156964254   -5.62612238966090    0.38730781659313
C         1.23371041141399   -6.03739532215370    1.00457913301915
C         0.15006368107260   -5.18747608445880    1.06601941773308
F        -0.98146227505277   -5.59137214895881    1.69408866215383
C         0.21161749702857   -3.89673637821995    0.53069555197917
N        -0.87614643741256   -3.01505033301528    0.58804120248936
C        -2.04769281075629   -3.40957987995259    0.20532544320367
C        -3.10000415924726   -2.44507644575002    0.18609777672721
C        -4.36082643183205   -2.69254179498875   -0.35624603913570
C        -5.27076746347167   -1.66446767181178   -0.48562220107113
C        -4.88863601273104   -0.37638436043037   -0.09786448931755
O        -5.61652282407958    0.73012877943237   -0.19065552823789
C        -6.92855704978218    0.66835983575614   -0.73183251381143
C        -3.59896229150341   -0.21928205771776    0.45337382054144
Br       -3.10274921988250    1.52883408647455    0.90627417860055
N        -2.74413715427773   -1.20882392158170    0.63155498557099
C         1.39378117763910   -3.48620897977483   -0.06873671475839
H         5.15107663296316   -4.94506685568169    0.02927917131748
H         5.44344696940300   -4.03527547233213   -1.47380241230145
H         4.49598735354564   -5.54134488413198   -1.52594701097387
H         3.23385268311165   -6.30945817817227    0.34125639427394
H         1.15563336404333   -7.02159026813899    1.43787393187474
H        -2.22332264190992   -4.41047693586580   -0.17262106916876
H        -4.60882498829484   -3.68843097539405   -0.68483755133136
H        -6.24665708151536   -1.84900200106895   -0.90350317158156
H        -7.57183776870411    0.02856287655115   -0.12417924998193
H        -6.90907531637872    0.31301280186033   -1.76433300287713
H        -7.29653801054507    1.69158283908288   -0.70359184414894
H         1.45353649404463   -2.49999205777297   -0.50098681919892
Cl       -0.33123725321140   -0.36275142631049   -0.92918244933446
