64
 energy: -88.691681966650 gnorm: 0.000938635738 xtb: 6.4.1 (afa7bdf)
Ir       -0.54522140989580   -0.43653512799738    1.55154743199745
C        -2.08556167268634    1.50238751910210    3.93484954903236
C        -0.86059465985888    0.83316606268708    3.40872967539684
C        -0.50644357722251   -0.51861091371855    3.77104738891724
C        -1.27038581162546   -1.37261254439933    4.72555431790937
C         0.84035114062054   -0.76191042977844    3.32794789183741
C         1.67392392339636   -1.92889197309338    3.73063532256689
C         1.26040046793208    0.37133991558492    2.58318891173551
C         2.62878987155665    0.60727549480505    2.03806160119414
C         0.20056942161477    1.37462725142229    2.63286723363689
C         0.40864941419034    2.79404342881950    2.17689504614398
C        -0.68685870518128    3.34437725480791    1.25724983170571
C        -0.31047397703091    4.74668349793407    0.78703433100050
C        -0.11414767982933    5.67738221469051    1.98132616950010
C         0.95534345852816    5.12627254716069    2.92052982561569
C         0.59048890998234    3.72052127626448    3.39002501682206
H        -2.96577592065544    0.87672709628020    3.79930820364722
H        -2.25993128859805    2.46551846554380    3.46905055672091
H        -1.95660910525824    1.65880548104453    5.00676397360941
H        -1.02032183661923   -2.42203712027248    4.59945276114113
H        -1.01494013386360   -1.08486542767324    5.74608547011791
H        -2.34190446826298   -1.24678018368529    4.59831368114182
H         1.07701065373204   -2.83232278736600    3.82342565852576
H         2.47330825871690   -2.11492087592015    3.01953403745584
H         2.12177395247607   -1.71650626607856    4.70202480201364
H         3.21196733183792   -0.30870440110067    2.03979735441844
H         2.58177410535324    0.98734169521560    1.01916916008451
H         3.14343444068517    1.34567716344493    2.65301135623128
H         1.33884797874777    2.81717553730294    1.60115985047181
H        -1.64032236029813    3.40374957648910    1.78240620258233
H        -0.80085774393164    2.68205153963318    0.39760359878073
H        -1.09400582910900    5.13875397523565    0.13558537722733
H         0.61225777985439    4.70298343064052    0.20441620984241
H        -1.05721890884437    5.77900694141735    2.52350988318698
H         0.17546570557050    6.67072584017301    1.63315232342496
H         1.06619667920558    5.78403932415902    3.78506838769963
H         1.91454275878670    5.10058383972721    2.39850835069435
H        -0.33202982718266    3.76170735420049    3.96938395437552
H         1.37718455908893    3.33076678811053    4.03873282545542
C        -1.74825787096160   -2.64083814323193    0.19304508579619
N        -0.65464449007121   -2.30962931979485    0.80290903762854
C         0.39778894942713   -3.23166074545841    0.89853416615783
C         0.16416205869841   -4.53037408196537    1.35128948442758
C         1.21491988920417   -5.42454582857491    1.43994348243467
C         2.49276501595967   -5.04106001114638    1.06146037125870
C         2.72257201813424   -3.75157997077297    0.60355248358876
C         1.68486899976522   -2.84092450025611    0.53228014739598
C        -2.77249688402050   -1.64117704920219    0.12426469375173
C        -3.97458377603937   -1.78143803592087   -0.57079857137880
C        -4.85879889639741   -0.71986428197673   -0.60174569816929
C        -4.51427028149834    0.45532484391734    0.05828876206593
C        -3.30530791946717    0.52555248393349    0.72801836057679
N        -2.45302244521860   -0.49446487895215    0.77467332588428
H        -1.86867298070555   -3.60712043938269   -0.28235272641085
H        -0.82960802029518   -4.81889600944346    1.65673840039506
H         1.03523018556726   -6.42505271829225    1.80181215978005
H         3.30790005785878   -5.74484176824611    1.12492574016240
H         3.71490452403742   -3.45511243274260    0.30045022822187
H         1.84247898312145   -1.83897183903832    0.16208124003696
H        -4.18763730380997   -2.70693877996726   -1.08089082589657
H        -5.79412616508981   -0.79856178493631   -1.13300306001033
H        -5.17220522423642    1.30871570146817    0.05445038071255
H        -3.00835437295791    1.42817305774111    1.23931988959562
Cl        0.08801805305180    0.26229307144765   -0.64755908188770
