76
 energy: -122.750900031587 gnorm: 0.000356902717 xtb: 6.4.1 (afa7bdf)
Ir       -0.39961866783499   -0.84774456549918    1.55073641149725
C        -1.63187562830172    1.05168556476431    4.17668913944086
C        -0.49370635442954    0.36099446420981    3.51489251686082
C        -0.13282896661439   -1.01174255597518    3.75894384368311
C         1.14187107201594   -1.25178789707488    3.14305926645961
C         2.01472389205967   -2.42664532481604    3.41448136603818
C         1.49608708421181   -0.08021758543156    2.40012632884171
C         0.48210391041877    0.93358898720512    2.65150613369900
C         0.62029587242762    2.36202306749865    2.33229902983279
C         0.59984220122526    3.29270868000632    3.37055314507742
C         0.75445815299732    4.63843959708552    3.10733578236032
C         0.92935383520095    5.09741124277949    1.80289493307167
C         1.07868974263849    6.53356112803414    1.52537932459248
C         1.99740122768322    6.98451691805589    0.57944179014031
C         2.13852658428602    8.33594452555655    0.32289224712380
C         1.36059591986231    9.25944231938545    1.00217143737009
C         0.44140610140537    8.82239692344212    1.94215744747570
C         0.30313500877074    7.47172370391230    2.20430055364719
C         0.95654143980264    4.16179292168501    0.76997665410255
C         0.80558067905032    2.81471613292747    1.02859289208940
C         2.80842765619660    0.18306590049351    1.74873656169498
C        -0.80582467000509   -1.90500898970888    4.74466532374668
H        -1.42083041113403    1.12388152809662    5.24434592707360
H        -2.55676103207988    0.48901628999405    4.06688237827799
H        -1.77176909872687    2.05158925751957    3.77814854994402
H         2.58034412525759   -2.22615089082493    4.32546908887860
H         2.71977306840355   -2.60109345858281    2.60778766265167
H         1.43181552892681   -3.33008209196724    3.56979221791021
H         0.49149964314834    2.95745744220397    4.39036010499927
H         0.75826294158466    5.34356125077749    3.92481997006468
H         2.61957438242075    6.27298143416962    0.05645396921804
H         2.85908557442784    8.67185862402064   -0.40897555497732
H         1.46973480158327   10.31473215795042    0.79898341235895
H        -0.17123792284913    9.53842252417161    2.47091716224518
H        -0.42866998178838    7.13913209372344    2.92586507869400
H         1.07374625817772    4.49698234417524   -0.24946169396422
H         0.79463741343757    2.11013888049922    0.21149254984813
H         3.34758835384763   -0.74202872754703    1.56868862397456
H         2.67829580409444    0.71385129073074    0.80957840741890
H         3.40923581902883    0.81260434259724    2.40572626118846
H        -1.87627046091582   -1.72171178180823    4.77241960180346
H        -0.62927793780950   -2.95159666450702    4.51293254931402
H        -0.40391105550645   -1.70636576057085    5.73889860187029
C         3.46126757337256   -7.65974991711607    0.95772389840122
O         3.51728526269026   -6.32464546866092    0.48926707028628
C         2.45426324160858   -5.52498127635841    0.65203435586937
C         1.26810890674636   -5.87810991317714    1.28868952077221
C         0.21807313600331   -4.98475359580328    1.38662863886863
C         0.35427480434888   -3.69238226596056    0.88241054027202
N        -0.67744865937445   -2.76562835269350    0.94753731159441
C        -1.90249127948645   -3.13665682224206    0.71425521145983
C        -2.89943696238331   -2.11965931521713    0.67256287517712
N        -2.46230844865827   -0.86506631202504    0.95058962862172
C        -3.29101928359978    0.15488207357354    0.74253968972507
Br       -2.62076466104894    1.90091996138634    0.97235704746638
C        -4.61234923555989   -0.00271271902581    0.34451945352729
C        -5.10092299547389   -1.28171576175437    0.11602587942503
C        -4.22384894379987   -2.33711710189862    0.26556955297106
F        -4.61823410382966   -3.58978249376584    0.01400112859617
C         1.55647302351398   -3.30690372943071    0.26904031772911
C         2.58853305570233   -4.20950203047153    0.11786253766213
O         3.75603585538059   -3.95810423895519   -0.50944769558035
C         3.92264566898001   -2.71311637671990   -1.16068542621551
H         4.42332733068634   -8.09687666464773    0.69886907793272
H         2.66224695832729   -8.21889931435250    0.46421565654405
H         3.32574813536765   -7.69347391438203    2.04178675556016
H         1.15156464303853   -6.86389202266631    1.70745074094301
H        -0.68592646834498   -5.27846985718286    1.89600509507931
H        -2.15604331207394   -4.15731657337325    0.45433898432276
H        -5.23970747063959    0.86427274206465    0.21671203728734
H        -6.12036970653578   -1.45345906582053   -0.19074170606307
H         1.61939465789572   -2.30984867233122   -0.13636626505396
H         4.89374716192649   -2.76868901623478   -1.64769379541164
H         3.14450858631592   -2.55026843419199   -1.91065663805974
H         3.92003675001894   -1.88514435221331   -0.44749956700046
Cl       -0.01639912769213   -0.24285844174334   -0.72685891032355
