83
 energy: -131.896570919539 gnorm: 0.000636328878 xtb: 6.4.1 (afa7bdf)
Ir       -0.44566040406408    0.00927377867611    0.60069214786242
C        -2.12651378982728    1.75064159861827    3.08178722860809
C        -0.89229428787878    1.08100235648903    2.59506634901701
C        -0.61763228974055   -0.31329612373041    2.81445677280074
C        -1.49377262104391   -1.23988486489938    3.58837421162746
C         0.75076877469396   -0.55471786366219    2.45337002135208
C         1.56237000340762   -1.73934198231205    2.85059992230636
C         1.27289510532876    0.64020223243784    1.87716304303581
C         2.70362237073489    0.86543670978984    1.52195230329949
C         0.25105664822032    1.67353501381290    1.98487447636659
C         0.54135845421754    3.09911596624271    1.80317356239861
C         0.14972322425801    4.02677060915931    2.76834284201577
C         0.50832986871770    5.35179023412906    2.61529756672266
F         0.10206954619358    6.23680152507334    3.55237365967777
C         1.26561321933913    5.80824889528784    1.55320977772991
C         1.64190656543524    4.86524098825560    0.61343112199116
F         2.37386493899273    5.26577467349093   -0.44753271175108
C         1.29501006816018    3.53213610865668    0.71210696532474
H        -2.22478897703296    2.75184010169741    2.67722331245309
H        -2.08148555831998    1.80962344718614    4.17041902362853
H        -3.01164750723346    1.17319322283783    2.82508635978560
H        -1.28914751393760   -2.27777360831258    3.34203910627501
H        -1.30993860932895   -1.10016742581991    4.65421376131196
H        -2.54347322333800   -1.03536739748382    3.39901310014295
H         2.08917860470495   -1.48594757894742    3.77273270640430
H         0.93817085421098   -2.60334899820193    3.05863218366729
H         2.30935607486033   -1.99094954484351    2.10263085206256
H         2.86430281721549    0.80098710432556    0.44643519872762
H         3.01134280380380    1.85980264959294    1.83980324285504
H         3.33545859347955    0.12481937951770    2.00413325725886
H        -0.39819167463223    3.73367681584802    3.64753865324834
H         1.52995843748965    6.84673725914972    1.45166478138687
H         1.58032549312708    2.85214883635811   -0.07383578399062
C        -3.12232587985541    8.39693637358349    2.30662534193276
O        -3.27687513463056    7.04837548856232    1.87319081091515
C        -2.34414661899100    6.56903389787357    1.04993292393365
O        -1.40051191977596    7.21874181222705    0.65536511244347
C        -2.58188650493827    5.14947906691629    0.68189712629580
C        -3.70333518546605    4.45001020854642    1.12438778743457
C        -3.88551011587530    3.13538055872371    0.74380332514399
C        -2.93328007642218    2.48555408959684   -0.04526579543935
C        -3.20953714624322    1.13311389054580   -0.56022350035321
C        -4.41995143442982    0.97472498294854   -1.24384031644561
C        -4.72313790274411   -0.21844976135540   -1.87262977683525
C        -3.79108994850290   -1.23912475563964   -1.81221302759924
C        -2.62187487832525   -1.03723555144337   -1.08543694487292
C        -1.61906526095119   -2.05746910294620   -0.96935782818746
N        -0.57300584053775   -1.82616775848469   -0.25970131923291
C         0.43219568382667   -2.85750216328501   -0.16203854707191
C         1.72724434626339   -2.48079124853142   -0.89355902065401
C         1.56103778952752   -2.52009028861451   -2.41648317052187
C         2.88484261428373   -2.27143649579179   -3.08617793022552
C         3.66380131810340   -3.32708741272935   -3.54141754301826
C         4.89325179740586   -3.09257304042224   -4.13337336012648
C         5.36070140185431   -1.79668291442680   -4.27280434546997
C         4.59232144477216   -0.73730602480137   -3.81788690589050
C         3.36354891292218   -0.97468597765029   -3.22858559871909
N        -2.33725400090543    0.12502074118982   -0.44303228382502
C        -1.81296679926177    3.18585067627849   -0.48371750243483
C        -1.65276852935291    4.51302357853080   -0.13579977114485
H        -3.07593212885132    9.06804126645540    1.44746663281194
H        -3.99151762509901    8.61440751096066    2.92089037044286
H        -2.20301706049830    8.50071294085736    2.88667781294812
H        -4.42730188229068    4.94573820114947    1.75027656055179
H        -4.76193484576024    2.60114980092587    1.07726958078061
H        -5.09659505874720    1.81269416962502   -1.29209064115619
H        -5.65156525118784   -0.34083349377598   -2.40739227819322
H        -3.95382329662133   -2.18090467505358   -2.31001696000358
H        -1.75931967545900   -3.00179803482272   -1.48539164582092
H         0.04363183237692   -3.79000925490800   -0.58237886304222
H         0.65313800813134   -3.01505196456233    0.89284643639716
H         2.50240587202920   -3.18925832885540   -0.59902551626835
H         2.04230635896775   -1.48051854002963   -0.59610832446228
H         1.17838132082053   -3.49566341804644   -2.72127165821472
H         0.85161402594479   -1.74927353084186   -2.72084888331701
H         3.30677967134561   -4.34228250267111   -3.43999265808506
H         5.48772879188105   -3.92217455207563   -4.48899271434069
H         6.31905181957199   -1.61231168806020   -4.73681994656952
H         4.95227460682956    0.27591443995102   -3.92710273249682
H         2.76351677321604   -0.14663331699757   -2.88116080366392
H        -1.09521339860857    2.70785632949672   -1.13007214834100
H        -0.81310945608452    5.08270792266265   -0.50019719064537
Cl        0.50328645607254    0.76648973058646   -1.43625038502594
