73
 energy: -108.593365751217 gnorm: 0.000921428226 xtb: 6.4.1 (afa7bdf)
Ir       -1.05482260894845   -0.80627838743031    1.26619795010318
C        -2.07081565645960    1.63547039774481    3.58511420637385
C        -1.05145507859830    0.70223684488032    3.02168752872476
C        -0.94232127502809   -0.66980062148268    3.47798990009408
C        -1.81356844144020   -1.27773178165542    4.52516910121853
C         0.31348487842322   -1.19037204831970    3.02405832087249
C         0.94939572525648   -2.44822772694175    3.50455760179913
C         0.89463601110444   -0.21767348899672    2.15803038309424
C         2.26602236708936   -0.28053682759184    1.57519333171048
C         0.06588253917126    0.98143885734127    2.19434803623992
C         0.56138902959949    2.30359719966682    1.67484608089748
C        -0.40860967203158    3.08802698314529    0.78593841880578
C         0.27582408196954    4.35094511037073    0.26862168757009
C         0.73470322761007    5.22726633055604    1.43152580186007
C         1.67782463890633    4.44972583111481    2.34572810053368
C         1.00629745591374    3.17938118739148    2.85974959666072
H        -3.07050259761520    1.21008901350005    3.52893277242608
H        -2.07157929241201    2.59566394229396    3.08344248334835
H        -1.83861754095556    1.79569935778944    4.63892350224633
H        -1.73306138645842   -2.36064474521692    4.52532183929523
H        -1.50136346496568   -0.91369929476601    5.50467204073809
H        -2.85387396837118   -0.99979011919827    4.38012252298685
H         0.21083996425226   -3.21833539678114    3.70954273374579
H         1.67085244450959   -2.83307138519884    2.78954346513471
H         1.47685189575437   -2.23078617453090    4.43423260380518
H         2.65246922467689   -1.29511757781977    1.58590214124940
H         2.27622471758885    0.07091465936202    0.54581927825852
H         2.93883171907980    0.35018693926418    2.15679398502492
H         1.44538022817049    2.09946059943425    1.06340047029789
H        -1.29701217767120    3.38357773750513    1.34506785109884
H        -0.71209910668748    2.46395396609797   -0.05618050540529
H        -0.41466498451373    4.90822277973691   -0.36791483452794
H         1.13857239398363    4.07575229003611   -0.34269446669365
H        -0.13501406526812    5.55991791747031    2.00347701522495
H         1.23928181883920    6.11674853574963    1.04921027717589
H         1.97526329491506    5.07379226248053    3.19114948139702
H         2.58209544249894    4.18758771001954    1.79143680761488
H         0.14159299511353    3.44833793033266    3.46656244160117
H         1.70106978576935    2.62261766864938    3.49124908913470
O         3.60161361471475   -2.28325926376993   -1.14036498635659
C         3.45717415807299   -3.43261576664507   -0.79109566825703
O         4.37723381171630   -4.37093264096944   -0.98561130379660
C         2.24257362052776   -3.93850292761661   -0.09509045295604
C         2.21414683572944   -5.20508555642182    0.48580611106214
C         1.06716217861764   -5.63786226961048    1.13011898051904
C        -0.05260816741453   -4.82779289941763    1.18945755385782
C        -0.02515070523878   -3.55608655788860    0.61149003093296
N        -1.15034478240220   -2.71982513108560    0.66284423199078
C        -2.31742622280629   -3.19792185342661    0.36463192636170
C        -3.41835479764592   -2.28629389413571    0.37713131400075
C        -4.72898019493779   -2.66801755706608    0.02504864678854
C        -5.71285039722075   -1.72142674985756   -0.00228121559217
C        -5.38017241340342   -0.37336021669215    0.25092036107427
C        -6.32576979829576    0.66708028533374    0.16419544628514
C        -5.95140650560401    1.97006023845184    0.35524612837565
C        -4.61066969906067    2.28411067004974    0.62967693165404
C        -3.67305388199353    1.29443749263430    0.74944820687141
C        -4.02882827425693   -0.05593438025611    0.58184328431200
N        -3.09173371909540   -1.02712518578064    0.70491061038014
C         1.12883337671181   -3.10965265906170   -0.02290729858576
H         5.16517087110692   -4.01942662672674   -1.43823382368548
H         3.08756800291463   -5.83429222523921    0.43339105693424
H         1.04496188994034   -6.61350086959490    1.58908926206551
H        -0.94009939912582   -5.16454918008073    1.70327553155348
H        -2.44833034615847   -4.22543645058481    0.04552392772869
H        -4.92808508270491   -3.70056521102537   -0.21041961584225
H        -6.73328268352250   -1.97985769358715   -0.23962520654627
H        -7.34786867308311    0.41545172075125   -0.07379388757575
H        -6.67872839406543    2.76299033015614    0.27867112537275
H        -4.32218273044221    3.31755499616626    0.74070491183372
H        -2.63437280920979    1.52238881717520    0.92004702509646
H         1.15459032818201   -2.13634808485701   -0.48786661082104
Cl       -0.69849957330049   -0.16421617536010   -1.00473657678881
