84
 energy: -124.279194141349 gnorm: 0.000144079943 xtb: 6.4.1 (afa7bdf)
Ir       -0.19914208463034   -1.00087856015017    1.61307796504997
C        -1.60506607479716    1.17617174956374    3.86812932305487
C        -0.39505756680825    0.56312671734365    3.24921969086818
C         0.21063539939950   -0.64095815780732    3.77026921836268
C        -0.25480102131687   -1.37618903915023    4.98048133814005
C         1.48844153721402   -0.81077081136461    3.13465850143143
C         2.54026014378477   -1.76713051868166    3.57687379545827
C         1.60851276140914    0.19255611235679    2.13426727878654
C         2.81850811159662    0.46715181171406    1.30771926823851
C         0.43714862738030    1.06275058785700    2.21048630928591
C         0.36201363936063    2.38617215310301    1.49728620653059
C        -0.93006021096139    2.62150253140632    0.70731724199243
C        -0.84306190157274    3.94863195078808   -0.04160852143334
C        -0.61068723158661    5.09946337909992    0.93465114920291
C         0.66121743719022    4.86448960496990    1.74534667238085
C         0.58781946438620    3.53590512456777    2.49299235022641
H        -2.38450155426732    0.43389181308584    4.02739465405119
H        -2.00454056345329    1.98849395794930    3.27241002229626
H        -1.32534087708480    1.57309794013917    4.84492430349490
H         0.13559894313485   -2.38972303915062    4.99480277858070
H         0.10774239904056   -0.86217144644139    5.87150739507409
H        -1.33942800279766   -1.41304366893507    5.03040907459037
H         2.11106671340202   -2.71011796697191    3.90513928879211
H         3.25573940923531   -1.97086684929380    2.78627265425146
H         3.07520582803416   -1.32695639274841    4.41900429434456
H         3.50258560529251   -0.37586385092421    1.32685258592164
H         2.54400263570723    0.66829343364012    0.27417197675358
H         3.33596602662663    1.34239368144361    1.70083478467499
H         1.18022988056640    2.41142741659415    0.77163149287701
H        -1.79108348820380    2.66077142847188    1.37468453230447
H        -1.07208102991709    1.80334254545841   -0.00048781584645
H        -1.76558340215298    4.11619427257042   -0.60102359471859
H        -0.02254130174253    3.91058719810679   -0.76161512113453
H        -1.46422839831057    5.18210150234120    1.61200760164006
H        -0.53174527328635    6.04036494381739    0.38660334402110
H         0.80298042739197    5.67856801213773    2.45909501141055
H         1.52195147484058    4.85931070095346    1.07263485590725
H        -0.22985517160818    3.57235228015128    3.21298153024198
H         1.51479071743457    3.36938898581532    3.04470840727402
C        -8.23194394078287   -1.92544727198734   -0.66651952497425
O        -6.91542834111672   -1.62767523630160   -0.20124453877623
C        -6.02571108637880   -2.61038643693991   -0.23725886299198
O        -6.25117303186997   -3.72948970814376   -0.63319798996526
C        -4.68826088424915   -2.17685237794325    0.27649830399107
C        -4.42991803016377   -0.86359726574722    0.67842635493584
C        -3.16449761224900   -0.53891529771814    1.12799533054851
N        -2.17558202963686   -1.42696024303899    1.20590525720231
C        -2.41333554219779   -2.70552096780331    0.81478617375480
C        -1.25945208417001   -3.55132356477499    0.89583313310383
N        -0.15174977352500   -2.97798724903324    1.24223166416238
C         1.03026963946502   -3.72460331756962    1.35374609162851
C         2.16253542918483   -3.32097614329452    0.64831029729215
C         3.32333398566315   -4.06430898047816    0.75895031169893
C         3.37552553090954   -5.17060753664040    1.58946402853085
C         2.25319508060036   -5.57267810336772    2.31606374662477
C         2.31576335020613   -6.72106286521137    3.23022130051537
C         3.05387004413536   -7.85673234014623    2.91163569348134
C         3.13344527776292   -8.93104123910280    3.77902478990318
C         2.47429633934145   -8.88907659349810    5.00450245360273
O         2.49107898202281   -9.87604226117048    5.93832598031595
C         3.26008082045034  -11.03461681598279    5.69257926897035
C         1.72746248843720   -7.75353600567362    5.33067293668767
C         1.64844542187453   -6.69390833082402    4.45659083775596
C         1.07278896915014   -4.84841549182033    2.17363349247359
C        -3.66246074328514   -3.10771637605696    0.34619639128396
H        -8.19826550212357   -2.26146524554122   -1.70401339599954
H        -8.79546013894121   -1.00112515253014   -0.57783579280703
H        -8.67719275896589   -2.71178652159417   -0.05500013842018
H        -5.20337823848748   -0.11543543487342    0.63703026434876
H        -2.93266223999180    0.47007438351788    1.43274140610087
H        -1.30750004935032   -4.60351780280399    0.64236930397908
H         2.10357392953669   -2.45799627445764    0.00389221628847
H         4.19911549889176   -3.77195406153096    0.20034654077521
H         4.29946831022573   -5.71685546863470    1.69525543502520
H         3.55982626801698   -7.92007436528447    1.95991971560025
H         3.71089001249107   -9.79470173866395    3.49018733467189
H         4.31842850669110  -10.78959886790583    5.56280971045328
H         2.89725531346478  -11.57678904976243    4.81427745509818
H         3.13893915906097  -11.65796649162693    6.57659137914889
H         1.22306535952979   -7.73002965126667    6.28356865243901
H         1.08249488247442   -5.82073599771170    4.74230721147846
H         0.18542680397699   -5.14593490047358    2.71137317562552
H        -3.83457479050957   -4.12436150335297    0.02878630350651
Cl       -0.01436061369261   -0.67137136906987   -0.74652554348522
