72
 energy: -110.795914911794 gnorm: 0.000334463589 xtb: 6.4.1 (afa7bdf)
Ir       -0.58765598409722   -0.80019364652581    1.36425952626941
C        -2.06393506313470    1.17327560070744    3.74777909095938
C        -0.84916997319153    0.51125867890337    3.19076274293681
C        -0.44695493482071   -0.81800896000178    3.58563735629969
C        -1.14827247509642   -1.66173227779517    4.59431173106808
C         0.88062015020243   -1.05022502212694    3.08809855765254
C         1.75345029112150   -2.18419913527326    3.49700878118979
C         1.24194244032268    0.06422056672686    2.28169543174686
C         2.57471109046282    0.29859536636963    1.65608651221393
C         0.16691337308031    1.05083599257536    2.35091360203829
C         0.32854793288163    2.46250633981139    1.85341517067930
C        -0.81951906968693    2.97669492182779    0.97783311092824
C        -0.48552476226346    4.37393294032898    0.46128845194030
C        -0.24631480162420    5.33222381027996    1.62590791521476
C         0.87658864122403    4.81640633115469    2.52215176117938
C         0.55589955148681    3.41610257891421    3.03788664563136
H        -2.93329093629996    0.52299232228942    3.67451142721707
H        -2.27777629166952    2.11578702677115    3.25770501046078
H        -1.89050831694167    1.36998611743336    4.80651221250378
H        -0.89384500891305   -2.71040764394079    4.47006641543357
H        -0.83835467558367   -1.35522318672213    5.59403861410030
H        -2.22619974911481   -1.54822777736638    4.52548907380406
H         1.19103287010599   -3.11054900527971    3.57826209051928
H         2.57098656514132   -2.33446143546923    2.79911154574372
H         2.17564538510089   -1.95641861299902    4.47635542109651
H         3.14552684461203   -0.62345661885558    1.59742321703314
H         2.46535884033049    0.70082174131882    0.65113683717066
H         3.13708659182379    1.01646200253941    2.25329623306367
H         1.22856545567783    2.48637438167865    1.23216761210282
H        -1.74568074399853    3.03568753382804    1.54997847582989
H        -0.96229402095334    2.29202426696787    0.13999755664070
H        -1.30254480814154    4.74399881323470   -0.16129961423978
H         0.40971914809059    4.32893878314930   -0.16250496511427
H        -1.16299412907349    5.43197432579643    2.21204559557349
H         0.01074530754367    6.32200191917135    1.24370612790226
H         1.01982590753228    5.49343326159957    3.36674369972845
H         1.80933539460533    4.79286723678724    1.95389876507478
H        -0.33736626222334    3.45665568853758    3.66146277684881
H         1.37950158452463    3.04993415070073    3.65331058286711
C         2.15754224820564   -7.78931484690116    2.27988611206265
O         1.09488382646721   -6.87254126178804    2.08572871762659
C         1.34398279241054   -5.69461605136105    1.48563232070280
C         2.58887174788543   -5.29236968302514    1.00161619936123
C         2.71924215325038   -4.04171027953157    0.41545232126758
Cl        4.27089191740502   -3.55550227270285   -0.19463732586393
C         1.65314070090803   -3.16913902104704    0.31084447426703
C         0.40825275843396   -3.58338329807294    0.78498530108520
N        -0.67797955395556   -2.70228943694911    0.68248615772685
C        -1.78226338965031   -3.08429741187195    0.12587467134519
C        -2.82704878906497   -2.11104470645628    0.04730357766253
C        -4.03611417144360   -2.29938892128616   -0.63107258066909
C        -4.92506212079587   -1.25433805992403   -0.70800662940947
Br       -6.58316001997061   -1.42233663605547   -1.61819695418789
C        -4.61006805811734   -0.01317246736452   -0.10778736173080
O        -5.49932659181285    0.96196050127399   -0.22901039397288
C        -5.22087593893159    2.24755288933921    0.30832406619364
C        -3.39253258155622    0.07531160533456    0.57167635803340
N        -2.53190118155032   -0.93476372159823    0.64882176512001
C         0.24836612831769   -4.83420247530947    1.36150070254788
H         1.71497862462669   -8.63931704611264    2.79492654537420
H         2.57631470126158   -8.11966388823848    1.32617954735206
H         2.94453507799390   -7.35472940510195    2.90120729383804
H         3.45209763307358   -5.93172994202255    1.07180682797375
H         1.75844432866469   -2.20347992542588   -0.15490818060225
H        -1.89552339299639   -4.07267564584399   -0.30330408218812
H        -4.25286302563890   -3.24548020080141   -1.09979150195387
H        -5.15509645136375    2.20669038329396    1.39713370346891
H        -6.06549035782087    2.86811578263010    0.01764086508288
H        -4.30147385667584    2.65588461148366   -0.11555298302991
H        -3.09816428945021    0.99168778154992    1.05829565603695
H        -0.70636601800924   -5.15289398535039    1.74713556969274
Cl       -0.07524720914890   -0.15964834184088   -0.88137285950742
