64
 energy: -97.462027528430 gnorm: 0.000654384902 xtb: 6.4.1 (afa7bdf)
Ir       -1.12005638048026   -0.98295764450647    1.07222594322618
C        -2.44702109858747    1.07452549903116    3.53737097406644
C        -1.30313384006408    0.31540646209464    2.95779986789879
C        -1.00294591872197   -1.05849618414721    3.28665530673691
C        -1.76905374367711   -1.88462512316507    4.26378832229907
C         0.31344951901082   -1.35743800979083    2.78408926690178
C         1.12076931329155   -2.55444304463932    3.14747259139305
C         0.75172771218749   -0.23834118760010    2.02495012363041
C         2.09795506305523   -0.03355764702525    1.42007128309492
C        -0.25141087607497    0.80879698436070    2.14422352760068
C        -0.03235117049042    2.21031299900316    1.68086637171873
H        -2.26222658829902    1.21617176552564    4.60277698217601
H        -3.38037469674622    0.52694219528423    3.43179826117925
H        -2.56058103573063    2.04976141878921    3.07560983813406
H        -2.83549774714368   -1.69023658305224    4.18809042508705
H        -1.59046056481269   -2.94487147469523    4.10803411932239
H        -1.44984960193798   -1.63321131978508    5.27596959999806
H         0.49629093251612   -3.43209409604073    3.29077625802259
H         1.86892458832403   -2.77611376498735    2.39189385102365
H         1.63686265357136   -2.34967885611346    4.08654639920171
H         2.00999483531389    0.44376279473995    0.44647441329404
H         2.62702862958232   -0.97487784417861    1.30533184729143
H         2.68749552317813    0.61993517614788    2.06365475978108
H        -0.89643416278699    2.83832964474329    1.87714327215143
H         0.18709820813187    2.23421769865774    0.61449834943641
H         0.82624136177527    2.62926345565179    2.20561939295014
C        -8.53494258648444    4.42795233658175   -0.39182583071467
C        -7.94543265508159    3.02651967444881   -0.38595464230437
O        -6.56282716410717    3.13873427318485   -0.06580086993142
C        -5.80317156822047    2.04114622798515    0.00538394412182
C        -4.43618647763819    2.27388474886287    0.31424679227642
C        -3.55777636985578    1.24343389763168    0.44748786982647
C        -3.97494566389553   -0.09324722072692    0.26620272541793
N        -3.09899446071019   -1.11095398103055    0.40672796834024
C        -3.47821118249392   -2.35484187123665    0.06173294709947
C        -2.42112197639581   -3.31310378103530    0.06122381302933
N        -1.24314747963962   -2.88966679969187    0.40313689008785
C        -0.14045185266112   -3.74882578848973    0.35763739996995
C         1.05281060542295   -3.29078608267636   -0.20288432417943
C         2.15198546701310   -4.12333474552685   -0.27266467796880
C         2.06722960462947   -5.41039228854061    0.24019600643698
Br        3.60009798466789   -6.56469704211434    0.16055144950078
C         0.89260437238578   -5.87436657711176    0.81467778925752
C        -0.21255982912919   -5.04701969231568    0.86593668176423
C        -4.79897472233938   -2.65954299341678   -0.32630871534669
C        -5.72801330715046   -1.66148178203892   -0.37419610190739
C        -5.33345581261908   -0.33065083824050   -0.10451988362372
C        -6.22898392117563    0.74433031265044   -0.20827269433771
H        -8.41658287193633    4.88834942228658    0.58497665631154
H        -9.59197966079349    4.37818706617232   -0.63523398456854
H        -8.02896757473262    5.04355984460313   -1.13041316444912
H        -8.05814976813115    2.56110511187857   -1.37292103396637
H        -8.44710564332838    2.40398238016064    0.36520888166181
H        -4.12243486989038    3.29894407177698    0.42874233114097
H        -2.51346954882407    1.42967735736573    0.63703000924756
H        -2.58505169454211   -4.32531203415076   -0.28963256266515
H         1.09335894202936   -2.29093521292581   -0.60704894001993
H         3.06972072512679   -3.77751551458783   -0.72112001156814
H         0.84343690330481   -6.87302395950225    1.21726883362648
H        -1.12313994689839   -5.39910536337604    1.32554413735043
H        -5.04903153019976   -3.67855121028386   -0.57187379103654
H        -6.75315842041934   -1.86561418401361   -0.64142154482714
H        -7.24951308349600    0.52596279297525   -0.47780069592650
Cl       -0.58504387617304   -0.22269886984930   -1.13161900474663
