57
 energy: -89.589567376886 gnorm: 0.001000211860 xtb: 6.4.1 (afa7bdf)
Ir       -0.85871012495822   -1.18113497345908    1.46920110876478
C        -2.28510905204205    1.10214044668463    3.63235956611252
C        -1.13607371500840    0.24463757590604    3.22848654456567
C        -0.90983390777428   -1.10360820850929    3.70470226399722
C        -1.76604634531589   -1.82485656775636    4.68726413605088
C         0.41861074161389   -1.49074848386760    3.31959898849732
C         1.15590552061982   -2.67028984349268    3.85032494066774
C         0.95589438230613   -0.45097847125933    2.49761029721393
C         2.36048087263354   -0.33324881712087    2.01358387432280
C        -0.00501631190959    0.64332149443870    2.47836365399800
C         0.27969549938789    1.99319108733073    1.91984329518366
H        -2.06843267332714    1.53192438439201    4.61153919828199
H        -3.20490294701123    0.52845177007156    3.72052846064749
H        -2.43616177075237    1.92505141993571    2.93830048495030
H        -2.81623167154260   -1.58317706502419    4.55108338618804
H        -1.63838817208259   -2.90046662002391    4.60667173477477
H        -1.47876570863368   -1.52465180091142    5.69583190991562
H         0.50202930212028   -3.52813983138605    3.98366948247268
H         1.99332027931759   -2.93831100440091    3.21291306400106
H         1.55572490670241   -2.40589798582073    4.83042084872307
H         2.39133636614940    0.13239155536717    1.03160092217366
H         2.84975944284263   -1.30084089254758    1.96060389506903
H         2.92157247185219    0.29916148339361    2.70175672882796
H        -0.62101388223978    2.59637583732064    1.84970873595008
H         0.72191741379940    1.91345959219906    0.92886121049956
H         0.99198969679390    2.50581723972746    2.56711797476834
C         3.76297787115583   -2.69122376404452   -1.82222395989271
C         3.72479673320754   -3.79120493888033   -1.09357317279090
C         2.58484507340917   -4.27082407431169   -0.24411818331053
C         1.35323198392717   -3.37197201680339   -0.28086696139284
C         0.24337745025139   -3.92365524001641    0.62727475207520
N        -0.88170795744291   -3.02363485516257    0.63457126906200
C        -1.92413648466036   -3.32476998801681   -0.06777815024078
C        -2.99270165655302   -2.37193128866540   -0.11077411755206
C        -4.13796641779772   -2.49912816470225   -0.90083044808471
C        -5.07452924709132   -1.48590422379202   -0.90155324986536
C        -4.82555221582209   -0.36426566085839   -0.10749674255862
C        -5.77991100150455    0.79870748302139   -0.05434608721963
F        -6.16566374410922    1.06713538504086    1.20706282538069
F        -6.89223067053296    0.59807395496513   -0.76576282450516
F        -5.21893162240129    1.93076024782055   -0.51682789637203
C        -3.66966903298658   -0.30082045969948    0.65626569998149
N        -2.77711721780220   -1.28173372650635    0.66929656529128
H         4.63410776736632   -2.43562957433882   -2.40151916041448
H         2.94127969796592   -1.99895713651832   -1.88147777394848
H         4.58556985897322   -4.44879271992825   -1.07610379805533
H         2.31706630447350   -5.27745015059032   -0.57864874659548
H         2.94682024684848   -4.36752691428901    0.78380112983938
H         1.61376621453892   -2.36487691561188    0.04368588806880
H         0.97553920088350   -3.30559251622829   -1.30126451966493
H         0.62489647354426   -4.01828632725144    1.64461070902043
H        -0.06526873653031   -4.90992729506280    0.26828343098073
H        -1.99207549837938   -4.25240638620256   -0.62500731300780
H        -4.27244757023079   -3.37739427096430   -1.51240473541903
H        -5.97052836032116   -1.54784834160675   -1.49875172230892
H        -3.46683089373756    0.56538886124515    1.26818777921649
Cl       -0.34171216218288   -0.30315730322183   -0.68834619233769
