60
 energy: -96.259835026388 gnorm: 0.000580581346 xtb: 6.4.1 (afa7bdf)
Ir       -0.22352367706548   -0.35324394493006    1.57684266901425
C        -1.58934148439643    1.67038393010343    4.07646434977814
C        -0.43136064155187    0.97001915683236    3.46129570163346
C        -0.04628285475825   -0.38035693409639    3.79942093297847
C        -0.73057650903760   -1.23334920034554    4.81101643815691
C         1.26260870490011   -0.62017122504700    3.25480129185504
C         2.15873931970832   -1.74345170861097    3.64217600044273
C         1.61529647054742    0.51463507977256    2.46300161084608
C         2.92926772803404    0.77988118661537    1.81738756033606
C         0.56105401031917    1.50625839097647    2.60030530391847
C         0.69036718668317    2.91086366407631    2.11942410834475
H        -1.39589501016825    1.77900938366659    5.14418085989202
H        -2.50740347026751    1.09868602997444    3.96325143733912
H        -1.73799553432687    2.65451727403099    3.64633833569851
H        -1.80607024999899   -1.08341390096803    4.78684072774156
H        -0.51189964717076   -2.28548977894711    4.65083557828272
H        -0.37389456113037   -0.96216696872377    5.80546381208516
H         1.60660896088458   -2.66745321495242    3.78947149218766
H         2.93439965480574   -1.91033101025820    2.90120523706130
H         2.64053990615358   -1.48194386153307    4.58541648737077
H         2.79348085899215    1.27368718387701    0.85783580710688
H         3.49283051038633   -0.13599123844004    1.66557907573693
H         3.51192485439703    1.44332113429105    2.45715826437913
H        -0.23042997703648    3.46560886219979    2.26650548558599
H         0.94841178802310    2.93060300973300    1.06284605812723
H         1.49175862277090    3.40396706439095    2.66967900427269
C         2.41363781468580   -7.36895084704079    2.69338886975028
O         1.37767907083371   -6.41385449600713    2.53824457784712
C         1.62688242445829   -5.28071985511417    1.86183329686794
C         2.85052078011149   -4.94921502390343    1.27961514982026
C         2.96624000824769   -3.73528778049610    0.62428117633759
F         4.15557455327006   -3.42285123226052    0.06986493845186
C         1.93512057344979   -2.82369311719367    0.53027557166759
C         0.71134127870964   -3.17407768643206    1.10144978480138
N        -0.36116314454209   -2.27494848016647    0.99209944687070
C        -1.49692555340607   -2.69868736187019    0.52897200098085
C        -2.52184740259808   -1.72421683724156    0.33572550513971
C        -3.71116395170662   -1.97842854424916   -0.35331791561556
C        -4.57953547288425   -0.93622348185212   -0.59121537185661
C        -4.21767297927630    0.35053762823368   -0.17372772173923
C        -5.12360785506342    1.41738195155218   -0.37085966630111
N        -5.88824775345112    2.25762783783319   -0.52590382029825
C        -2.99061543334703    0.54501301480580    0.48121676245424
S        -2.43552397912692    2.14137564841385    0.96836393433511
C        -2.41716531909546    3.02041730710598   -0.62257853500386
N        -2.19316808390506   -0.48264230418369    0.77636979516425
C         0.55487260030251   -4.38731568175753    1.75582036356726
H         3.26027448533544   -6.94705425864701    3.24090061710169
H         1.97472533906822   -8.18002660342342    3.27048951518509
H         2.74861320159077   -7.75009811929358    1.72558560587845
H         3.70642792838861   -5.60136487816033    1.31992970538624
H         2.05722123126367   -1.89186505640683    0.00310577042720
H        -1.63651032653137   -3.72617773818715    0.21458928193531
H        -3.92853234002974   -2.97668171076494   -0.69481026802674
H        -5.52194336329881   -1.08969207580217   -1.09389396541914
H        -1.75214184295043    2.48952505543859   -1.29732118395362
H        -3.41751503248110    3.11524266046858   -1.03014590272899
H        -2.01490681138722    4.00335723535401   -0.39935434166244
H        -0.38205850705737   -4.65314042272263    2.21788278368510
Cl        0.29646290271552    0.32208989025847   -0.65051839121476
