53
 energy: -87.910866905131 gnorm: 0.000511234836 xtb: 6.4.1 (afa7bdf)
Ir       -0.65895784186690   -1.15750700845350    0.97865545883285
C        -1.97857276851375    1.35572617560542    2.91101046043773
C        -0.85105733848176    0.44632494911333    2.56392207674777
C        -0.60574532919842   -0.83783826537325    3.18331773120845
C        -1.42566966914396   -1.43346095974772    4.27445705819031
C         0.69902298858821   -1.28236772102563    2.77740447505543
C         1.43001257945790   -2.44524249472952    3.34947476307077
C         1.21044153185008   -0.33973588799810    1.83219589473862
C         2.59421378621685   -0.28895832822348    1.28223156372476
C         0.25637810281500    0.75190874329860    1.72916008187880
C         0.52176017854249    2.02631997969100    1.00954319527000
H        -1.69643772249165    1.93770862709471    3.78950576299743
H        -2.87845504374885    0.79916923747673    3.15903684255350
H        -2.19132082422774    2.05516300307652    2.10659604596554
H        -2.48589375830684   -1.25571315151398    4.11691858621893
H        -1.25412074856007   -2.50238848735083    4.35877140560442
H        -1.14388498986043   -0.96993766649725    5.22079843561897
H         0.75373515948353   -3.25823004050957    3.59854983416744
H         2.19011787044043   -2.81299079120885    2.66622601153846
H         1.92493797764322   -2.12576718388939    4.26731895243849
H         2.58826956926687    0.06971964338003    0.25595510915232
H         3.07300171662381   -1.26260310015694    1.31748954468639
H         3.18617427404294    0.40772535739320    1.87659831785545
H        -0.36382529956650    2.65231542133195    0.96262554052057
H         0.86517247355326    1.83019977806393   -0.00416014108655
H         1.30910723176525    2.57202861673402    1.53005655659718
O         4.95761809414475   -5.85313808173177    0.05705969962273
N         3.93393176831071   -6.29863991768654    0.54163185899944
O         3.84424647769044   -7.39936659114661    1.05285895191647
C         2.75818444507965   -5.47434858848137    0.50620387389128
C         1.57632295424377   -5.94234450868253    1.07411168086698
C         0.44267798581132   -5.15706418304451    1.02453321138787
C         0.49375221340724   -3.89998655739327    0.41540261883671
N        -0.64780033684433   -3.09156323794671    0.35830122438663
C        -1.74616851593195   -3.55484370722623   -0.15635288950375
C        -2.86494071585186   -2.66777261131071   -0.19959948300139
C        -4.09469676406871   -2.97226918355564   -0.79297828010799
C        -5.08715498570149   -2.01601501744455   -0.82423915479553
C        -4.81208700329805   -0.76725373485572   -0.26527611548660
Br       -6.11852310743259    0.61545252645755   -0.27591983087191
C        -3.57400756132352   -0.52588318324704    0.31527320578228
N        -2.62613720099738   -1.45212433481852    0.35934458888348
C         1.68732835608583   -3.43294506564684   -0.14096683600187
C         2.81759859577182   -4.22198301219906   -0.10209179337285
H         1.56381178495826   -6.91494054540411    1.54123278642211
H        -0.47765578817386   -5.50367007329974    1.46788466901760
H        -1.80041807148820   -4.54970860956129   -0.58262382618372
H        -4.25145706867708   -3.94633350510663   -1.22829050735218
H        -6.04732131498295   -2.21723455871438   -1.27251147159743
H        -3.35313038190017    0.43729100691660    0.74995985083974
H         1.69853003017318   -2.46927413971630   -0.62619186821903
H         3.74667043936403   -3.89068048271578   -0.53909225399439
Cl       -0.26527343469189   -0.56783654802534   -1.29757347434735
