72
 energy: -110.970946929514 gnorm: 0.000556683669 xtb: 6.4.1 (afa7bdf)
Ir       -0.40827671633058   -0.71869899777367    1.59804595416235
C        -1.99691751367703    1.21418077041408    3.94253401178862
C        -0.75382804034011    0.57425670044169    3.42367600381325
C        -0.34594644073816   -0.75108723137348    3.82378789672478
C        -1.07007953268415   -1.60753469751570    4.80525335799838
C         1.00120421723535   -0.96055529355843    3.36908671521273
C         1.87676992954357   -2.08636379563515    3.79571205634108
C         1.37603965661315    0.16713959060107    2.58764215816194
C         2.72901987271666    0.43287230991269    2.02016827723041
C         0.28297631187696    1.13507442730135    2.62313309472224
C         0.43886522060590    2.55198285711038    2.13897954905708
C        -0.68187488649683    3.04883099576980    1.21901777216191
C        -0.35359258861136    4.45473995601257    0.72288336223560
C        -0.18439529047018    5.41123310086396    1.90104711898425
C         0.91046501516564    4.91338529546895    2.84105437532346
C         0.59867416533364    3.50357042150351    3.33606264115712
H        -2.85120722489123    0.54723195957543    3.84609453853337
H        -2.21429989566147    2.15171536075794    3.44446773199008
H        -1.85788777406412    1.41605008437182    5.00546640289045
H        -0.77757301476114   -2.64890476691283    4.70752041804019
H        -0.82153529698780   -1.27999048448978    5.81550056854292
H        -2.14636462951381   -1.52941650356517    4.68102084384386
H         1.31960363525443   -3.01590756318789    3.87683999406367
H         2.70355668551055   -2.23410537909516    3.10796819546195
H         2.28830327607348   -1.84977680102648    4.77741857224284
H         3.32846612795286   -0.47229647085060    1.99316419171608
H         2.65556956676804    0.82829417918459    1.00910264045523
H         3.24465575412260    1.16819252871099    2.63788227895351
H         1.36292863874356    2.59555109719285    1.55532974858629
H        -1.63132715373447    3.08758027911436    1.75356586386360
H        -0.77736973601372    2.36594695004173    0.37305482767182
H        -1.14982722217484    4.81166074741740    0.06672182582563
H         0.56869644733422    4.43050986612669    0.13852266538031
H        -1.12699689294219    5.48829551292897    2.44821077358179
H         0.06762899352189    6.40837747522035    1.53514683023299
H         1.00377696824497    5.58809671870757    3.69439314042040
H         1.86646525671853    4.91309659711961    2.31257442632023
H        -0.31950372346413    3.52200793068327    3.92336835410986
H         1.40441852064954    3.15088622891729    3.98225789566545
C         2.37181410135324   -7.77286305950331    2.29133208394534
O         1.31125900418968   -6.84831668320468    2.12319596766504
C         1.57577546950123   -5.63417785763836    1.61041843795234
C         2.83762139664094   -5.19262290605453    1.21275182883113
C         2.96077780901048   -3.90777249449848    0.71253869263389
F         4.18697634723941   -3.48633960695843    0.33526996001316
C         1.90120898549568   -3.03228221946482    0.60277684953685
C         0.64198435303192   -3.48936958556846    0.99247453881446
N        -0.45229308320885   -2.61953604850477    0.88793051100460
C        -1.53928616809934   -3.00500504446965    0.29967735034476
C        -2.59527088919003   -2.04538717224275    0.21197878784786
C        -3.79235533851414   -2.24637789511094   -0.48410473992832
C        -4.69476260270102   -1.21331130268800   -0.56827169860648
Br       -6.34120899982960   -1.40148577051689   -1.49489516020005
C        -4.40213227092066    0.03028671535632    0.03871637804580
O        -5.29926937786615    0.99640280751390   -0.09178268635540
C        -5.03836457196147    2.28315458763274    0.45213120992039
C        -3.19550123596714    0.13129431891449    0.73574581193581
N        -2.32484699062090   -0.86890969472063    0.82413757627598
C         0.47825297358078   -4.77515899693281    1.48653983369942
H         1.91403111692524   -8.66398727048414    2.71510693819991
H         2.83643734264345   -8.02185097814086    1.33420595841908
H         3.12593528915050   -7.38598962911937    2.98108773780591
H         3.71621234963166   -5.81185533660042    1.27861272086997
H         2.03004519576893   -2.04362478964754    0.19468746521122
H        -1.62979207075597   -3.98584212445638   -0.15172840947017
H        -3.99051781255672   -3.19365137606895   -0.95858357541307
H        -5.89262763486638    2.89312489261393    0.16747070256192
H        -4.96750307132599    2.23692186472130    1.54032076500044
H        -4.12607731124214    2.70680395511582    0.02775863032871
H        -2.91805221159061    1.05021018082389    1.22725742541375
H        -0.48761607391550   -5.12791274535098    1.80964735687769
Cl        0.17408429439495   -0.05941969130652   -0.62495432264306
