70
 energy: -108.961863500849 gnorm: 0.000424482958 xtb: 6.4.1 (afa7bdf)
Ir        0.18695421657585    0.49219977478704    1.78048589382182
C        -1.56908452288837    1.84159050905618    4.45886129864813
C        -0.29954566982639    1.68403073080356    3.70131484335089
C         0.66157331598880    0.65756322410127    3.97405643723703
C         0.54194935509052   -0.32835997844061    5.08596066482614
C         1.84281773944912    0.94163851815322    3.20039994873689
C         3.20366304043402    0.37239673302675    3.40760987371317
C         1.58717332911758    2.11498536226476    2.41756242705998
C         2.61535188893769    2.84730816207953    1.63068476182777
C         0.24953805277450    2.56360696868463    2.71104604267975
C        -0.26707701486727    3.87197195514413    2.29055378325068
C        -0.71285236928444    4.78436134486521    3.24439549612538
C        -1.13965521060907    6.03192318107978    2.83115030194431
F        -1.56654886801003    6.90994710973562    3.76325854935782
C        -1.14388812935387    6.41912406095597    1.50351355461260
C        -0.69248310439207    5.49114037619749    0.58107379519339
F        -0.68448970349082    5.83246076392461   -0.72521564558269
C        -0.25080521686384    4.23483713842372    0.94447417019864
H        -2.17684495229922    2.64595900894431    4.05934579846977
H        -1.32758607357611    2.06147468223583    5.49960129389950
H        -2.14952288137977    0.92149293864834    4.44976660473944
H         1.19895038653578   -1.17899623096784    4.93673742999426
H         0.82172878109045    0.15712690770208    6.02185830869833
H        -0.47933063296303   -0.68519299809810    5.18372859490853
H         3.75300880880022    1.03930642750604    4.07416669951509
H         3.16560173535962   -0.60691430093513    3.87129703533213
H         3.75553835666753    0.31308207505340    2.47323999455152
H         2.82753707052002    2.33767252457894    0.69157740591668
H         2.27483472444770    3.85298803885920    1.39812882460618
H         3.54126359980400    2.90213335840990    2.20047074428325
H        -0.70758922364141    4.54940330529052    4.29559060985416
H        -1.48238755493978    7.39606636963998    1.20174225352074
H         0.06887008159520    3.53659382327011    0.18667780058886
C         4.62684641431705   -2.93284390580907    2.21735842446822
C         3.37981986653353   -3.80876939895867    2.28699482970124
C         2.06184962272585   -3.04893401353916    2.49370829368966
C         0.89553321987587   -4.02671197806760    2.68200733329993
C         0.97087215565066   -4.81338901690734    3.98939773492540
C         1.84062347490758   -2.10784231220619    1.28100971561334
N         0.55653526799575   -1.44973855840558    1.25482722087155
C        -0.41507280509659   -2.07873095626540    0.68898382108932
C        -1.69214789673170   -1.44888187878723    0.56445688003192
C        -2.77468700466710   -2.06287180855180   -0.06325637697287
C        -3.95230443310217   -1.36942593738503   -0.24629143939054
C        -4.01553051272507   -0.04307727799417    0.18673640928181
O        -5.05133017182432    0.77986217078031    0.07312073933014
C        -6.25739853913311    0.31641740287839   -0.51834929455166
C        -2.87265560907778    0.49738713374088    0.81815774734303
Br       -3.03086889826297    2.29800316803026    1.34311559751294
N        -1.75570168770074   -0.17393136399875    1.03394780528910
H         4.61667769329208   -2.28212162485418    1.34756345954966
H         4.72655793826449   -2.32668120840954    3.11373191234972
H         5.50840785660829   -3.56553561756157    2.14391629598680
H         3.30838285140689   -4.40452080041533    1.37452364207958
H         3.50509423012477   -4.50129245484617    3.11937234878585
H         2.14134419139702   -2.44130385543757    3.39760497749170
H        -0.04264602810443   -3.46818594492112    2.68888617304455
H         0.86969573781746   -4.72919099708225    1.84661259859440
H         0.06046458843660   -5.39263421837604    4.12188231929140
H         1.07462626250793   -4.14355783238627    4.83959678150266
H         1.80701184307599   -5.50688040744013    3.99327783324415
H         2.60887748022301   -1.33671092996740    1.29010271551545
H         1.95355814856162   -2.70346983942040    0.36998948554325
H        -0.27132216020448   -3.05734755687283    0.24301168156511
H        -2.67841284558666   -3.07825820458604   -0.41198358280781
H        -4.79420647552682   -1.83621835924895   -0.73038523015840
H        -6.67248330308598   -0.51966138315780    0.04794629144979
H        -6.93892472738005    1.16288464041636   -0.47576852800407
H        -6.09661597560638    0.02665158839982   -1.55874028741041
Cl        0.56300787527441    0.94031967237373   -0.52752392513795
