81
 energy: -115.505508356834 gnorm: 0.000504755211 xtb: 6.4.1 (afa7bdf)
Ir       -0.52960799838589   -0.24703720248750    1.89648873768376
C        -2.32136834376764    1.78214249807002    4.13208367702649
C        -1.12604235855082    0.96983153914966    3.77891149484184
C        -0.99850912694110   -0.44331152009454    4.08037071872150
C         0.36198518620790   -0.81065708885709    3.90046556463888
C         0.99507052273136   -2.06272119712603    4.39844827662021
C         1.04658712232927    0.30849591041338    3.30476416215175
C         0.12526547881739    1.44086841486781    3.31541805757233
C         0.51040451175587    2.84392680810249    3.10923376973300
C         0.23638807071069    3.77825450104681    4.10887038656529
C         0.63058905176218    5.09296274632372    3.96533984508428
C         1.31113769147344    5.51635569593950    2.82471421583451
C         1.73808685911917    6.91557760008532    2.67886973813411
C         2.99797730441815    7.22006026015829    2.16723271272333
C         3.40492309242119    8.53501020724266    2.03658688287912
C         2.55747536674771    9.56653703554262    2.40738683394345
C         1.30097717294527    9.27489644232284    2.91306527921604
C         0.89493821597734    7.96032877600725    3.05161493652910
C         1.58129410396727    4.58011585677178    1.82810754758413
C         1.18953687265887    3.26371550543404    1.96602720987099
C         2.52284090889699    0.40356959097324    3.11708986001157
C        -2.04261671236618   -1.26472495722060    4.75515974587772
H        -2.32838333735050    1.93444088569895    5.21265478203377
H        -3.24556601137159    1.27066994033448    3.87353217770869
H        -2.30395106767724    2.75520427475973    3.64939238227622
H         1.05587576600495   -1.99809066636913    5.48608981348836
H         2.00497466778829   -2.17982311851379    4.01697710903453
H         0.40558449128300   -2.94378882742402    4.15627288137341
H        -0.25824111509929    3.46669718926719    5.01544472131149
H         0.42960281440236    5.79842015937446    4.75756397291209
H         3.67031421555097    6.42075153842965    1.89113989594217
H         4.38754542309940    8.75744245555351    1.64617628781067
H         2.87505338308867   10.59356531971334    2.30314511526457
H         0.63534814465554   10.07647924122353    3.19931691519534
H        -0.09243335853453    7.74236752380871    3.43222662672204
H         2.08686494957277    4.89209891189908    0.92664190383681
H         1.37879947428123    2.56405119910307    1.16651659492006
H         2.89036289860875   -0.37858269164827    2.45624123280880
H         2.79424360844446    1.36716560085856    2.69639523307554
H         3.01603788823018    0.29405556675128    4.08328892365889
H        -3.03664514664463   -1.01192848993288    4.39484771013286
H        -1.86784332656308   -2.32591549364391    4.60111334914337
H        -2.01726539944735   -1.06857431490749    5.82776460135726
C         4.31711981030766   -2.55913954005190   -1.01323968503337
C         3.27166478851118   -2.97080842067118    0.01688803563968
C         1.88936460760233   -2.34418948985580   -0.21808841991039
C         1.25683212884493   -2.77031321725973   -1.55005031600266
C         1.45977369518304   -1.75038144435370   -2.66723504352247
C         0.99791061080063   -2.76239463406774    0.98240627365720
N        -0.25075343173334   -2.05219515161494    1.03929576050324
C        -1.30265300882467   -2.61662326511778    0.55901132501959
C        -2.55464460336727   -1.91121489559828    0.54547367703995
C        -3.73598391305668   -2.55480127671379    0.19218964916139
C        -4.93019331390311   -1.86180400447310    0.28689383483929
C        -4.88134025743488   -0.51886235255674    0.63641025654362
C        -6.07930607169349    0.23138469364908    0.69739608153355
N        -7.07671831936143    0.79503237793237    0.73824007210943
C        -3.63218167043696    0.10560743461172    0.88954938470978
S        -3.73993922565750    1.82776464633896    1.15811121989822
C        -2.20464974856222    2.54345106048928    0.51905013944053
N        -2.50255620237742   -0.60743800461030    0.92766394048543
H         4.37987799680775   -1.47610643955705   -1.08669329668820
H         5.29304916482548   -2.93867344729703   -0.71780787956277
H         4.08608141264139   -2.96367792943294   -1.99426088874407
H         3.63219131149218   -2.67129866691972    1.00362246359606
H         3.18009098792458   -4.05939697672468    0.01617562787054
H         1.98524587021253   -1.25647155546146   -0.20641318938879
H         1.65688046446202   -3.73964516648996   -1.85424634678284
H         0.17801486375661   -2.88628317494470   -1.42181837403541
H         1.03690691737046   -0.79120618802934   -2.37867448125267
H         2.51131205643658   -1.60386161032988   -2.89192838721165
H         0.96138988923238   -2.08576189681548   -3.57461716534751
H         1.55351873029553   -2.55450610752970    1.89550642695872
H         0.81199161432946   -3.83885065281400    0.91299901522440
H        -1.28171059428711   -3.63677965695747    0.18793523144690
H        -3.71543865440340   -3.58443266943045   -0.12335806949058
H        -5.87679453139501   -2.33262544495924    0.07374694148006
H        -2.45301568123843    3.58098046014726    0.31379247408649
H        -1.92573185779927    2.03866137241858   -0.39838074720887
H        -1.40288305908654    2.49686319894042    1.24703577761490
Cl        0.26129626837278    0.63966540896257   -0.14833220194504
