71
 energy: -113.513134578323 gnorm: 0.000231119098 xtb: 6.4.1 (afa7bdf)
Ir       -0.94810707988752   -0.71120276287783    0.97583794546972
C        -1.59015834809120    1.83786851592737    3.32041969412317
C        -0.76344277330327    0.73421103282454    2.76097156222169
C        -0.86117305626002   -0.64186204682735    3.20353219284113
C        -1.82049897220091   -1.13724676927753    4.23156363808603
C         0.30902374476397   -1.33544897829535    2.75284564528288
C         0.74866984026459   -2.67691147060686    3.22210261705945
C         1.03842723284093   -0.44891900294924    1.90241391255230
C         2.39490853806630   -0.67296333119401    1.32978408380384
C         0.38315775600214    0.84950549692107    1.93963364900699
C         0.98753497023552    2.09178078944471    1.38189808345285
H        -1.22956559433944    2.05374810386385    4.32752398848871
H        -2.63665741336119    1.55647955899179    3.39533144252391
H        -1.50970704254987    2.74307547945428    2.72811348484139
H        -2.78870967833121   -0.65529906466329    4.12937996036437
H        -1.95057143753978   -2.21361525451641    4.16185966171692
H        -1.43192774541839   -0.90651324057591    5.22429909675874
H        -0.09567585163991   -3.33734279962347    3.39930782859606
H         1.42068842326753   -3.14904447765603    2.51189114056151
H         1.28160624541517   -2.55050167804309    4.16535037563374
H         2.46716772371782   -0.24033018553146    0.33474285787390
H         2.63413421977853   -1.73024263441128    1.27243198751537
H         3.13485575320682   -0.18217432434271    1.96277619588567
H         0.31664203329029    2.93857523362529    1.48436850210114
H         1.22933827912502    1.95992669103760    0.32934905788075
H         1.91363001666075    2.30860674489915    1.91420176854538
C        -0.72919507865224    7.74336233400312    0.43639742068989
O        -1.13050519624494    6.37745024536673    0.37018399666813
C        -2.25858234195700    6.03305500433528    0.99455840594496
O        -2.94054682719987    6.80693970795148    1.63044875177968
C        -2.57997892123704    4.59159325786719    0.82790851899806
C        -1.81057728049436    3.75151227625687    0.02668774510676
C        -2.16021269540006    2.42154615297007   -0.12514104533865
C        -3.29279364318878    1.91735957734041    0.51017469169900
C        -3.77790550856780    0.56035194316737    0.20667523976004
C        -5.10121133201024    0.46064528558672   -0.23679790826956
C        -5.61694717047363   -0.75533497651024   -0.64741298360627
C        -4.78339889186762   -1.85811410514753   -0.62001722919469
C        -3.48382403505465   -1.70570215340659   -0.14159149606494
C        -2.55939108846444   -2.79951273542258   -0.10794001641337
N        -1.36515005521749   -2.57196894541375    0.32908455413728
C        -0.43457678798399   -3.62307118215402    0.35980637376916
C        -0.79493596438515   -4.85496297888005    0.91243223702298
C         0.14119775683749   -5.87174393688373    0.92355485361778
Cl       -0.28821880308939   -7.40902229772149    1.60836241021060
C         1.41412390420399   -5.70095124465080    0.40071403634014
C         1.76830704929930   -4.46799216623286   -0.14879898415548
O         2.97361730428663   -4.17790356996196   -0.67064941668907
C         3.97410678870715   -5.18039512876942   -0.70723918994838
C         0.83422411835082   -3.42768618641305   -0.16131112211145
N        -2.98766170773699   -0.51664263307366    0.29155761389603
C        -4.06281206064256    2.76197880645293    1.31425968079602
C        -3.70312236722074    4.08318278409439    1.48037529289248
H        -1.23668510700601    8.31388496150950   -0.34346970413655
H         0.34549376666277    7.75487924238960    0.27476232631553
H        -0.98319361044561    8.16503915726948    1.41032747327358
H        -0.95108586317045    4.14887463285223   -0.48882122857461
H        -1.57826095022899    1.78371447445241   -0.77077167804098
H        -5.70189249399697    1.35500756211063   -0.27596195490553
H        -6.63447733973444   -0.83466424693562   -0.99550745356667
H        -5.11564078466816   -2.82555557934243   -0.95899807506988
H        -2.84928293303942   -3.77247314591057   -0.48854278130029
H        -1.77054606643050   -5.00301428583500    1.34367162403646
H         2.10737727787003   -6.52423493873019    0.42729576708489
H         4.24185557821792   -5.50988439120285    0.29998613571922
H         3.65604714817116   -6.03765756071777   -1.30534030856656
H         4.83569134323663   -4.71062735152901   -1.17664722088554
H         1.10039124769419   -2.48717187433122   -0.61461669239000
H        -4.93750822473676    2.37905341017515    1.81755112697935
H        -4.28542265504495    4.74683003249254    2.10060251475497
Cl       -0.27883428180837   -0.25777585908889   -1.27531767562619
