76
 energy: -131.226750495161 gnorm: 0.000558810542 xtb: 6.4.1 (afa7bdf)
Ir       -0.43121946877113   -0.91809233173375    1.68700315243862
C        -1.71093937233459    0.77242635017600    4.35568330321671
C        -0.53368755708046    0.17961668023870    3.66205144348369
C         0.00327730093164   -1.12134733025184    3.91323322075649
C         1.22778992767892   -1.25050898275778    3.15639529003780
C         2.22592791207735   -2.35113065691846    3.28209620696170
C         1.45905108775681   -0.01933178291641    2.47279574139541
C         0.33776027318091    0.85489602376545    2.73630982874064
C         0.27221843255390    2.28314282899189    2.38604251374951
C         0.26394969407043    3.23760925014087    3.40250982914581
C         0.26092636067605    4.58363010975723    3.09515926551585
C         0.26618708614328    5.01601987500707    1.76967603891146
C         0.30744026581162    6.45046815950964    1.44769816179061
C         1.13320413462023    6.91687201984431    0.42666679287033
C         1.19293308532477    8.26639742956846    0.13157141267728
C         0.42276793678072    9.17027668012319    0.84540006590132
C        -0.40376953247571    8.71671580602216    1.86063261604962
C        -0.45828075001899    7.36849985517519    2.16334890457271
C         0.25548404759727    4.05646883528092    0.75815985302811
C         0.25844297747651    2.70850735396764    1.05967286592045
C         2.70432446632010    0.34918546269525    1.75413985511142
C        -0.47404543377562   -2.03250248885947    4.98863310486109
H        -1.45808564872832    0.93340866725727    5.40403670085853
H        -2.56934171744071    0.10539941995715    4.32524715304082
H        -1.97890873715887    1.72957352190263    3.91752708081448
H         2.99004960144444   -2.05542137249928    4.00154574952190
H         2.71727988142133   -2.54122248246506    2.33064781448333
H         1.76575996017698   -3.26956488904073    3.63206760437493
H         0.29655732553040    2.92297545215743    4.43402185102124
H         0.28549047386063    5.31180993048577    3.89139826973527
H         1.75087340314671    6.22100876462644   -0.12236749894317
H         1.84549368846226    8.61591775319652   -0.65535345902793
H         0.46905968919978   10.22398450753271    0.61269298633827
H        -1.00677683101582    9.41817369319454    2.41865126056782
H        -1.11331699438598    7.02351707554658    2.94957215915288
H         0.23560980835819    4.37106240280763   -0.27462676752825
H         0.24451382342034    1.97553816171631    0.26689793648974
H         2.97802738051065   -0.41102177950641    1.02560261207668
H         2.58886563446460    1.29979413668358    1.24149740621307
H         3.51857469276011    0.42951590108517    2.47505009292944
H        -1.55531338383380   -1.99893132609496    5.08520058540631
H        -0.15243131866506   -3.05633686318488    4.82915663633615
H        -0.04725300364192   -1.69203545408103    5.93345141219989
C        -4.09694410606011    3.24216621113163    0.73863120537750
O        -4.56575813903118    2.15337683752408   -0.04463354984816
C        -3.95245640034650    0.98245007770402    0.01338077684079
C        -2.85241055007519    0.68043735837502    0.82038079027434
N        -2.26740985892052   -0.51333213097307    0.82743750307609
C        -2.74058929867902   -1.49411848542796    0.02139918393235
C        -1.98046529363992   -2.70238184490257    0.05343486442943
N        -0.99650178925844   -2.76561920544024    0.89712169646878
C        -0.10735197250425   -3.85674222486444    0.84573010789464
C         0.63131383771258   -4.09101556158210   -0.30819995237653
C         1.56862270324719   -5.11208986397870   -0.33336661178590
C         2.38448713581625   -5.30530023453905   -1.57660529637907
F         3.37561276789225   -4.39180268462279   -1.68581465112363
F         2.98105508259835   -6.50519157249692   -1.64159379553658
F         1.65281254649660   -5.18291412720812   -2.70045050028516
C         1.76812683064106   -5.91734740917024    0.78456472234906
C         1.01248308320053   -5.70741712694575    1.91879440957216
C         0.06321583479578   -4.68689970925247    1.96780513188998
O        -0.66863844920409   -4.54693344331710    3.07841788314071
C        -3.85308963623457   -1.28818940251337   -0.80307130293426
C        -4.45844913762508   -0.05529334102032   -0.80570917076104
Br       -5.97164939365276    0.31061059055576   -1.89348026408805
H        -3.05187670975679    3.46718577107396    0.51551385755015
H        -4.72219836724335    4.08613646699399    0.45654961174141
H        -4.22046818149236    3.03331779042383    1.80283697922423
H        -2.42610175805505    1.43024467390330    1.46878461274141
H        -2.20471779914633   -3.52090843686296   -0.62095150665598
H         0.49641963373955   -3.44703680273986   -1.16355749474559
H         2.50200658655687   -6.70667512734550    0.75745192232398
H         1.13541093009631   -6.33349774922328    2.78731663669868
H        -1.37411149126903   -3.89148008428331    2.96649329805136
H        -4.21564145713910   -2.08419738223457   -1.43301870316721
Cl        0.37321321307610   -0.60556319571027   -0.53587544766309
