83
 energy: -122.977977495508 gnorm: 0.000261773150 xtb: 6.4.1 (afa7bdf)
Ir       -0.70847852541213   -0.34620608914285    1.65400064119833
C        -2.25807684636117    1.56599711857436    4.03985654421593
C        -1.08192404881149    0.75263820506766    3.62090048224967
C        -0.95969314793469   -0.66898010647576    3.83819934145295
C         0.37887793507266   -1.04691278772908    3.51108644670676
C         1.02527591011441   -2.34663006289846    3.83497853408389
C         1.03827376248109    0.09169154189638    2.95084988477336
C         0.13901028438194    1.22794209060448    3.06862931083064
C         0.52904536344881    2.63457244493752    2.89226655955663
C         0.38839075337712    3.51955274477817    3.96065836799653
C         0.78214045808965    4.83646031842988    3.83489222353939
C         1.33062185126402    5.30850868053775    2.64358719118544
C         1.75255618802599    6.71141984873724    2.51578743498048
C         2.94849295438328    7.03697677240711    1.87929096405297
C         3.34973849188092    8.35569651685293    1.76846616179259
C         2.55946348223893    9.37047597501313    2.28363030309319
C         1.36577669480453    9.05807062016390    2.91370425723379
C         0.96705811492620    7.73944072312228    3.03309378534728
C         1.47035058571976    4.41929962800170    1.57903443256247
C         1.07406218787090    3.10183815488946    1.69780828664379
C         2.49087760424981    0.17008468192311    2.63160123798948
C        -1.95934785745321   -1.50606684827219    4.56303747019774
H        -2.31683352592626    1.56971614092403    5.12874136199631
H        -3.18593904623223    1.14005208959097    3.66272939470095
H        -2.16310859510789    2.59015552401168    3.69223888493308
H         1.44352653024262   -2.28087034123307    4.84041791046811
H         1.83685512940373   -2.56985418390099    3.14789403574678
H         0.31146998237548   -3.16568945445501    3.82144526035543
H        -0.00386222813140    3.16635202026244    4.90200418634234
H         0.68631169135387    5.50442377060205    4.67774646193655
H         3.57803811683396    6.25046505347542    1.48897452282509
H         4.28384093329525    8.59411998129893    1.28044831323843
H         2.87289638963871   10.40039106542870    2.19477484017410
H         0.74463415743396    9.84655935335222    3.31356230600174
H         0.02923562397214    7.50522153828693    3.51503400903905
H         1.87391849449893    4.77084186312738    0.64128347874503
H         1.15195404093126    2.43793445495266    0.84999782502188
H         2.82419514903490   -0.71971562764347    2.10279525101016
H         2.70931585612900    1.04474492646227    2.02644150020868
H         3.05687182136949    0.24438178329958    3.56116588679062
H        -2.97382918110269   -1.20280282032387    4.31761754910195
H        -1.83753459103055   -2.55894736238353    4.32376941837805
H        -1.82092287514843   -1.38565587540615    5.63815802988585
F         3.52671988895037   -5.58386921484059    0.49293971774893
C         2.46726675088025   -4.75269491026984    0.57450110761480
C         2.60841013552758   -3.43820860370748    0.16058080628610
C         1.52301185851440   -2.58881092967846    0.25232621688824
C         0.30191664965566   -3.05801390900021    0.73809471327844
N        -0.79284795934999   -2.18614476756362    0.81795521926227
C        -1.97468965521835   -2.59383723812459    0.50474870279371
C        -3.08411739003803   -1.68870515826315    0.61148345454787
C        -4.37935321846003   -2.15823453506481    0.49286748722140
C        -5.41814274007995   -1.25754819344451    0.73208090614985
C        -5.11447398158644    0.06673097419963    0.86671646500085
C        -3.76560884085143    0.53194357080868    0.74606442084151
N        -3.55716433775964    1.83741548574759    0.55536494506915
C        -2.25561467542166    2.47349562750049    0.54580663189101
C        -2.37843436605765    3.91597453555972    1.02352219380059
C        -3.17444641694141    4.74890758785240    0.01478464566768
C        -4.15909271912802    3.84352976557509   -0.72863794360897
C        -4.65983690873917    2.71523954178037    0.16977674612710
N        -2.76169021507356   -0.38031319204158    0.82237819451866
C         0.18771963982994   -4.38581811646727    1.15875170091622
C         1.27283079300714   -5.23719614235467    1.08136035179102
H         3.55414900882232   -3.09617570842019   -0.22779829367921
H         1.59931263716888   -1.56541379303578   -0.08017260737367
H        -2.14771845342743   -3.59457175844046    0.12330533615244
H        -4.56646833280644   -3.19837365785124    0.29102508764241
H        -6.43783539613191   -1.60013280860426    0.80580889953554
H        -5.89246631822474    0.77429579937795    1.09309787987693
H        -1.58674520261299    1.91687369495775    1.20045331700421
H        -1.82234137256707    2.44477690881017   -0.45827313866019
H        -2.88179802920104    3.92736880369503    1.99102946846954
H        -1.38103276309238    4.33037118716833    1.16397183021880
H        -2.50347553524974    5.22101270123743   -0.70248829661693
H        -3.70826881358424    5.54427600207647    0.53557098560751
H        -5.01732533052084    4.41866637847261   -1.07609065831926
H        -3.68143817651273    3.40787002023896   -1.60678517394340
H        -5.39948327621927    2.14071846572807   -0.39015050844112
H        -5.13569704179881    3.13864153056133    1.06107928297826
H        -0.74185357570613   -4.74570788505807    1.57176397362151
H         1.20511579295863   -6.26240570933658    1.40740435285055
Cl        0.07469881687209    0.38916757907624   -0.48004270929002
