71
 energy: -113.688662500440 gnorm: 0.000347764304 xtb: 6.4.1 (afa7bdf)
Ir       -0.37624383813829   -0.09012771045787    1.62939251404145
C        -1.61798509682429    2.33131344335095    3.85682953405691
C        -0.60573492232650    1.32784186379610    3.42995266268468
C        -0.63527054628411   -0.06189348194927    3.83984081486868
C        -1.68889359563286   -0.66820012614538    4.70296095936165
C         0.65410837712981   -0.62881802374457    3.57192034255676
C         1.14881758365857   -1.93020709742739    4.09650075558911
C         1.41269687253460    0.34289629679578    2.85059465344775
C         2.85506394873792    0.26238451877031    2.48816684620936
C         0.63629206488506    1.57215402282428    2.79826873626684
C         1.19785940880396    2.88173874962418    2.36354351616975
H        -1.45542634409869    2.54851718063569    4.91359615247571
H        -2.62937652981518    1.95034843042627    3.74808885231357
H        -1.52775371920492    3.25786510595402    3.29994672393922
H        -2.67553753633613   -0.30243370961900    4.43277610145704
H        -1.68025788306134   -1.75199715012633    4.63235173340012
H        -1.50110988119054   -0.39417631687137    5.74181562342475
H         0.36202112553612   -2.67905776765722    4.12190742687012
H         1.97792615594686   -2.31021420694189    3.50705995918767
H         1.50014485539730   -1.77442550604281    5.11746509574041
H         3.03496010714929    0.72894511263193    1.52231400913438
H         3.20217158268272   -0.76588389953563    2.45259777737064
H         3.44166498338179    0.79940888572503    3.23420706153040
H         0.43333350653002    3.65166491785065    2.33799044595760
H         1.64658770802390    2.79847035969923    1.37605185946460
H         1.97880731339574    3.18377073040389    3.06187511422254
C        -0.75655725890857    8.33230366552250    1.08608082915267
O        -1.03861442709275    6.93942284831480    0.97695973511251
C        -2.21968905583966    6.50732217389458    1.42279680373272
O        -3.04904809157555    7.22267241610150    1.94090325042240
C        -2.40001925294424    5.04614202017867    1.21826967621108
C        -1.45646602106348    4.27376737685224    0.54552190405331
C        -1.67485343333604    2.92191916620425    0.34962498633678
C        -2.84611126925645    2.32566748383546    0.81138527823401
C        -3.16711761491653    0.93352974699755    0.45544636933679
C        -4.40520756361519    0.71696116088006   -0.15975788741402
C        -4.75088929636893   -0.53858875751197   -0.62535444107043
C        -3.83420086055073   -1.56321407570376   -0.47662414838553
C        -2.63029833650041   -1.29727057419149    0.17177669789275
C        -1.62577651532724   -2.30493352765286    0.34044915493688
N        -0.52692535539642   -1.97180193594331    0.93139687303359
C         0.48631915984052   -2.93188853113808    1.08731391637285
C         1.78950714142688   -2.61583889819736    0.70438048108060
C         2.75319497194178   -3.59121561889020    0.85378500019346
F         4.01972421088086   -3.30977494924090    0.48087599647053
C         2.49389217957029   -4.84367288638718    1.38370732569556
C         1.18948596928684   -5.14480975557762    1.77427994335544
O         0.79547195326392   -6.31277112809414    2.30992317546567
C         1.75313266851297   -7.33771757240681    2.51203845591173
C         0.18820032989970   -4.18107113573739    1.61383960924862
N        -2.30404406812855   -0.07006170619630    0.65620402927594
C        -3.79222778757988    3.10308050626311    1.48513202391888
C        -3.56585392542311    4.44727521607180    1.69556783702456
H        -1.13113796831814    8.85112585357976    0.20172642262248
H        -1.23598557859050    8.74600312699150    1.97490935284277
H         0.32495628760627    8.42389947831873    1.14746584117574
H        -0.56287784853298    4.73923757321253    0.16221450382502
H        -0.95520570714230    2.33768681379774   -0.20053171745628
H        -5.07260128237307    1.55384144668090   -0.28742638987396
H        -5.70139696255484   -0.70675526974957   -1.10601436053020
H        -4.03006528105478   -2.55497447774435   -0.84953051530495
H        -1.77291806745432   -3.29981832521141   -0.06473834886128
H         2.02598799181856   -1.65900999724498    0.27090779132186
H         3.30383894427768   -5.54722005890718    1.47545632181348
H         2.19632942705231   -7.65824729293725    1.56598529544614
H         2.53830927542610   -7.01388655162518    3.19958999139584
H         1.20211275884529   -8.16548452058717    2.95294328698440
H        -0.81177422332906   -4.42572771975026    1.93288827083030
H        -4.69963668567571    2.65053281390787    1.85512388970521
H        -4.28584669604329    5.05909399129414    2.21684778510559
Cl        0.59243046439404    0.43969176565164   -0.49809656846364
