58
 energy: -96.962467718128 gnorm: 0.000563703515 xtb: 6.4.1 (afa7bdf)
Ir       -0.74259196051807   -1.31394161942936    1.25517230616088
C        -1.91189892755096    1.10674135216649    3.38683817042164
C        -0.81343938485757    0.21483349568125    2.91761768371289
C        -0.53125299793035   -1.09547982671056    3.45737591721360
C        -1.27723216000238   -1.73408504170152    4.57898614359944
C         0.74665273524784   -1.51724972214559    2.94809597207810
C         1.51106311143768   -2.70450127335618    3.42079203720904
C         1.19264489920496   -0.53686768934099    2.01588908726092
C         2.52931000584106   -0.46439379965848    1.35974570851137
C         0.22969851936204    0.55144388737466    2.01428762029556
C         0.44811548069310    1.85588050385569    1.32914121571625
H        -1.58565329921100    1.61046416576774    4.29791361483371
H        -2.80908920252959    0.54066003450163    3.62296479806290
H        -2.14721356475308    1.87079248741150    2.65076020221220
H        -2.34768144042286   -1.57464149996872    4.48163443013392
H        -1.08204533952079   -2.80128125360175    4.62504313094634
H        -0.95505122353053   -1.28884500488601    5.52102816174810
H         0.85099093455069   -3.53105950468014    3.67003999146088
H         2.22690417978253   -3.04066650093345    2.67584146606435
H         2.06230109198467   -2.43027735278020    4.32089844843508
H         2.43597589434454   -0.10471706029745    0.33757588023024
H         3.02046020784713   -1.43289776125936    1.35183105833481
H         3.15932800590577    0.23846982653212    1.90590770839670
H        -0.44693405952446    2.47011885568518    1.34268512656767
H         0.74712191229127    1.69926281641143    0.29491371038832
H         1.25014774829207    2.39595429650174    1.83315571180923
C        -7.57501885713100   -1.38648445264595   -0.67471775047900
O        -6.52761261711684   -2.34708521798454   -0.69314093793327
C        -5.33058748679201   -2.02355369182690   -0.22195150025379
C        -4.96628389024664   -0.77681236690342    0.31213675668543
C        -3.68079347666406   -0.58698670153063    0.77321503205571
N        -2.74765096891966   -1.53434021128395    0.75613247188729
C        -3.07395456474753   -2.74098489919273    0.22168513611942
C        -1.97932110331625   -3.66794738265335    0.18274256977120
N        -0.83814995802396   -3.23982218010341    0.61795216267066
C         0.28292395223562   -4.08219069452375    0.59789076342196
C         1.45523093213520   -3.64275063048163   -0.01533186753448
C         2.56831342936569   -4.46049456681054   -0.04284068910733
C         2.51445284747372   -5.71535871331322    0.55474288142119
C         3.72753667968553   -6.60186402935089    0.56391113007880
F         4.40993889374589   -6.51047604889381    1.72764841875565
F         4.60753932968635   -6.30742888480380   -0.40494303189791
F         3.42084771790544   -7.90311699689756    0.42006746555175
C         1.35184429755054   -6.15497259449749    1.17830629329704
C         0.23398048581998   -5.34272904555742    1.19296117355756
C        -4.34059181903755   -3.01530778653621   -0.26572098023484
H        -8.43672809284907   -1.89191378013061   -1.10473187015524
H        -7.32085972144622   -0.51653640540571   -1.28382944765829
H        -7.80446167890068   -1.07739795459614    0.34712320149846
H        -5.66669849335201    0.03929548202418    0.36816580693916
H        -3.38908286721233    0.37054546499841    1.17682927931863
H        -2.09762049489602   -4.65950688130318   -0.23874490063184
H         1.46970092887668   -2.67343228001000   -0.48956855128360
H         3.47366586110689   -4.13172349286677   -0.52905492906559
H         1.32390320821546   -7.12944520771539    1.64064020015392
H        -0.66875334038556   -5.67453992011532    1.68105325571872
H        -4.57425639971271   -3.97823934592797   -0.68829939403797
Cl       -0.44525789947269   -0.71609439429199   -1.03974945042860
