61
 energy: -93.928374673675 gnorm: 0.000745862366 xtb: 6.4.1 (afa7bdf)
Ir       -0.01556029952093   -0.38892534492363    2.07478820781910
C        -2.44723961451014    1.43937256386961    3.69443412543075
C        -1.09053047226763    0.82739612056835    3.66292949218482
C        -0.74941875397365   -0.46417102832129    4.19951643179777
C        -1.70665419794132   -1.38572235629505    4.87588611455316
C         0.68557764686450   -0.55622933038825    4.25005613163542
C         1.46254202652036   -1.59085611843728    4.98771059861767
C         1.22609878356781    0.61364239579777    3.64841373294542
C         2.66469100730961    1.00138358499297    3.61213116973988
C         0.11660094279990    1.47765590542315    3.28362019987166
C         0.24042779649896    2.88430074886369    2.86475593649645
C         0.89611351512726    3.78068607099631    3.70583030694391
C         0.99246714154224    5.10729905980063    3.33204498080960
F         1.62655240593989    5.96721806940892    4.15588160981086
C         0.46365417409402    5.58918890640270    2.14777708290696
C        -0.17721852322791    4.67352327497269    1.33297901923576
F        -0.70456858313328    5.10057121682196    0.16684066580778
C        -0.30328206216336    3.33834685859284    1.66706312594732
H        -2.47876662791244    2.35237874520543    3.10537362685054
H        -2.68332872189163    1.69739836398847    4.72778578969674
H        -3.21147846257086    0.74716125379924    3.34824258668541
H        -1.35406904876198   -2.41265889868768    4.84795296638538
H        -1.80876148152076   -1.09105640831061    5.92100518455417
H        -2.68864189710085   -1.33792905435899    4.41435218154583
H         1.60150037814040   -1.24501797391122    6.01326714996227
H         0.93221706686344   -2.53823320115185    5.02914504822200
H         2.44782729773770   -1.73627627152624    4.55333458380039
H         3.30301922637529    0.13676515100514    3.44870703384143
H         2.84694354468749    1.72705282790910    2.82351836188783
H         2.94758697012962    1.44773583215954    4.56596400224387
H         1.31549767420493    3.46207295150166    4.64586680582946
H         0.55207241384560    6.62644423736937    1.87155892295793
H        -0.77688148299495    2.66218242015367    0.97384821833450
C         4.75647510188368   -1.05847544902655   -1.28497534639837
C         4.50374625097773   -2.07269148854090   -0.47957416361198
C         3.12844530567502   -2.56321749963309   -0.14450927792784
C         2.86489883501341   -2.44635424594749    1.35881844435361
C         1.51068802856978   -3.04890392830645    1.76065109690214
N         0.41227454391588   -2.22259066544148    1.32105494521976
C        -0.28697397386027   -2.60021206057193    0.30617549885358
C        -1.36572777191059   -1.74693207251706   -0.10582453962401
C        -2.19075342917711   -1.98395966048311   -1.20443590787334
C        -3.19305727640069   -1.07799929063319   -1.49888422784057
C        -3.34090439804458    0.03962488371098   -0.68529557186043
C        -2.48322957498932    0.21278002583446    0.38726712454651
N        -1.52003592882066   -0.65530801449390    0.68242861856135
H         3.96392440176641   -0.50560639204415   -1.76310232554949
H         5.76046810980994   -0.73634087259128   -1.50465704131491
H         5.31683364499220   -2.61006439142951   -0.00707906779401
H         2.39159975932013   -1.97583510937734   -0.69344673125561
H         3.04800491447964   -3.61084672952249   -0.44836322771267
H         3.64709269820795   -2.97182632314034    1.90799948240541
H         2.89026888953459   -1.39155531799184    1.63563667001082
H         1.41946755484938   -4.04958366963428    1.32771865377253
H         1.46291079467257   -3.12678768468398    2.84727534051605
H        -0.08417800466415   -3.52665151400247   -0.21981915577683
H        -2.03178572073620   -2.86088279171717   -1.81073469642660
H        -3.84513560523208   -1.23349179332779   -2.34367260835857
H        -4.10999594123857    0.77013108480615   -0.87632575872752
H        -2.58342165488447    1.07314845340514    1.03116415677654
Cl        1.16137866353423    0.52941994400693    0.22424922075802
