69
 energy: -103.245560895198 gnorm: 0.000418003077 xtb: 6.4.1 (afa7bdf)
Ir       -0.58492676929559   -1.77267342687210    0.43915811091160
C        -0.82141590643571    0.90420988739731    2.55688598099230
C         0.01953073225390   -0.07844775977321    1.81627971998437
C         0.46729615628645   -1.33846058141434    2.35105624516677
C         0.21537132781202   -1.82647474022714    3.73735850837701
C         1.45041122929636   -1.88207245859425    1.44594417064692
C         2.35084262665215   -3.02817646187549    1.75599831516505
C         1.52100623123664   -1.02626549307301    0.31614135096079
C         2.48237213040215   -1.10765964404412   -0.81853424114834
C         0.61661854609513    0.09084215910345    0.53662686624627
C         0.57188051108767    1.30409318673075   -0.33236731860534
H        -0.20257927008844    1.39435466948615    3.30949749310777
H        -1.64612286058937    0.41542235134006    3.07025140566819
H        -1.21618358908144    1.67053364037349    1.89631930916066
H        -0.77097864253895   -1.53369679745685    4.08559459879004
H         0.30558716562802   -2.90795889156022    3.79280463996095
H         0.95554001681116   -1.39182996030637    4.41036395115258
H         1.83012902827669   -3.80749749782303    2.30661797951588
H         2.76918691667647   -3.46255848496764    0.85260844956709
H         3.17321973568342   -2.66756216709099    2.37502726630514
H         1.97693896055022   -0.91230488326635   -1.76214311362296
H         2.95420280167934   -2.08473899835823   -0.86953349180516
H         3.25724622043366   -0.35158623740332   -0.68916262715571
H        -0.23659987347743    1.97124340930652   -0.04808722237356
H         0.44134094454632    1.02232021958322   -1.37528921689431
H         1.51397663357939    1.84599469972970   -0.24573593107718
C         5.64546511043217   -5.63276127861301   -5.62745705516491
O         5.83217888531324   -6.01861518380299   -4.28155524515398
C         4.78164192330583   -5.92866791539426   -3.42323088253942
C         3.51419808238459   -5.45720656030571   -3.75329261469986
C         2.51965876136414   -5.41522208428671   -2.79300759232470
C         2.75126667096474   -5.84741378855490   -1.49079032461634
C         1.67552891285824   -5.82746719463794   -0.49021851977234
C         1.54289268706616   -6.86068903434312    0.44000494168030
C         0.51588881356047   -6.85064158781772    1.36723987878268
C        -0.40633284870934   -5.81990982075447    1.38528876442369
C        -0.27714053856668   -4.77709753154523    0.46851733608264
N        -1.18487418025985   -3.70878307428310    0.46523516850764
C        -2.45791558990913   -3.93872119619217    0.46610892650458
C        -3.31744121305923   -2.78853119565947    0.45353421762938
C        -4.69727594615859   -2.84213294677254    0.35498079034366
C        -5.43449558329298   -1.65228014517423    0.29219819971202
O        -6.75464782854862   -1.76510058407134    0.19809829544322
C        -7.55544876949794   -0.59358908145437    0.12089616702377
C        -4.71478062350509   -0.44702835158718    0.32638098532593
C        -3.34055797249920   -0.48268440102694    0.42724865081272
N        -2.64110113918422   -1.61090251358733    0.50577075177853
C         0.76248649151804   -4.77839790102752   -0.45586395649511
C         4.02686003538670   -6.31467327901497   -1.16764237189642
C         5.02657575220352   -6.35005802874565   -2.11307242377089
H         5.38304475729268   -4.57355234350415   -5.70590747408667
H         6.60258583974181   -5.80532233974873   -6.11594277229367
H         4.87552955903860   -6.24023822898410   -6.11265188229902
H         3.28884005181511   -5.12511378341229   -4.75420572087386
H         1.53857070101961   -5.06354500160391   -3.07488467609078
H         2.23828329456301   -7.68499181406601    0.42181642322880
H         0.42800994648304   -7.65687193619996    2.07913751204783
H        -1.20043838510142   -5.80117146619197    2.11554177149630
H        -2.86059133366177   -4.94430878008520    0.43083035453881
H        -5.21113027010771   -3.78763947638054    0.31026693087292
H        -7.31276866193957   -0.01089885521902   -0.77032303887078
H        -7.43871766524193    0.02069924601752    1.01613976371477
H        -8.58093222894204   -0.94974883857349    0.05454418156253
H        -5.20979448380587    0.50745909696085    0.27086585052053
H        -2.77591175603108    0.43692692300369    0.44314690863814
H         0.83414945331850   -3.96131627117659   -1.15780405540271
H         4.24299317430214   -6.63431644957685   -0.15939150141498
H         6.01504907113818   -6.70464865394706   -1.86684331763306
Cl       -0.90033596051638   -1.77972708774909   -1.93131754427315
