69
 energy: -106.818621815288 gnorm: 0.000186273337 xtb: 6.4.1 (afa7bdf)
Ir       -0.71575392254393   -1.65110125817646    0.49417680395921
C        -0.72113271802145    1.16844695863907    2.44038343856325
C         0.02769914047550    0.06927233305323    1.76794726173568
C         0.35678632696374   -1.19163921930159    2.39125029365456
C         0.05025740285188   -1.55827191682743    3.80309033700729
C         1.29157321417491   -1.87690492946428    1.53866506627724
C         2.07516587924849   -3.08199972585569    1.92588141597208
C         1.43692434747874   -1.11116127451794    0.34753503215974
C         2.39891780460499   -1.35134020068387   -0.76401646194522
C         0.65563915916419    0.10835101397675    0.49600823362280
C         0.72882627748251    1.25989672999759   -0.44931177150226
H        -0.06293633568807    1.64045383663047    3.17085321832531
H        -1.58873750295239    0.78832762310423    2.97464391526158
H        -1.03509967728114    1.92961479242024    1.73188087740763
H        -0.92201043164271   -1.18173238372322    4.10775128613814
H         0.07279843791495   -2.63555687224516    3.94074717128650
H         0.80360044043139   -1.11874261197798    4.45808006605752
H         1.46955954969160   -3.78893758620364    2.48704500379535
H         2.48416178330131   -3.58730334870178    1.05623021977096
H         2.90371535062752   -2.76741202724934    2.56115641871362
H         1.94528774616135   -1.10207238242793   -1.72057010056666
H         2.72872380415908   -2.38612814204877   -0.79005146690387
H         3.27181780739739   -0.71231510788464   -0.62773889120180
H         0.02424153498417    2.04172674631645   -0.18298776176030
H         0.52064448943855    0.93249374608510   -1.46603407484288
H         1.73513183597505    1.67812602439661   -0.43070435696013
C         5.36754671455063   -5.73202085038880   -5.64303295959256
O         5.53331831625500   -6.12539953693565   -4.29690470587588
C         4.48538019486084   -5.99403264797678   -3.44128071221164
C         3.23714465282732   -5.47506460853393   -3.77352226183951
C         2.24299896393442   -5.39519513731765   -2.81494461077762
C         2.45573713842226   -5.83704974992311   -1.51287496713551
C         1.38106137523647   -5.78472653055899   -0.51201632012404
C         1.21183558310907   -6.82499108216610    0.40461951044101
C         0.19070498104893   -6.78767094666417    1.33737734109783
C        -0.68651237677949   -5.71928590616373    1.37711287303477
C        -0.52092366410394   -4.66907925134378    0.47417044470499
N        -1.38193052066025   -3.56371426627287    0.50254763114854
C        -2.66478643250530   -3.74112976317336    0.53414390591906
C        -3.47637429972951   -2.56488946344430    0.56406105239945
C        -4.87330871415912   -2.56592085481989    0.49043023307168
C        -5.53771828304756   -1.36388020706881    0.45992152263545
Br       -7.43316196076647   -1.27707594188231    0.36532795743641
C        -4.80860554382454   -0.15266715368371    0.49099754476492
O        -5.50709176769404    0.97482788818551    0.44588401235250
C        -4.83580539581306    2.22670845421092    0.44811223329477
C        -3.41850330714879   -0.24815792382548    0.58201152068910
N        -2.77366514343131   -1.41035343600599    0.62580306195568
C         0.50981547577607   -4.70122987224891   -0.46007741296549
C         3.71300486818074   -6.35026928313794   -1.18694308175150
C         4.71250203415006   -6.42260345324645   -2.13012786122074
H         4.57864473834905   -6.31051806116442   -6.13298855663153
H         6.32014349839305   -5.93924272509661   -6.12697006995480
H         5.14467263147041   -4.66390459586664   -5.72178175516569
H         3.02630912691389   -5.13586793625490   -4.77528877684585
H         1.27607406844908   -5.00737547866408   -3.09834039704446
H         1.87386901192581   -7.67577112188307    0.37076677366745
H         0.07313486225081   -7.60017636093462    2.03758089283078
H        -1.47348642711309   -5.67779456137257    2.11397893788348
H        -3.10744809390249   -4.72920465069269    0.49162329783605
H        -5.41174244557504   -3.49825242299125    0.44722941820717
H        -4.16618200046307    2.31182392117933   -0.40987167764050
H        -5.62383709869735    2.97261949001708    0.37201509181607
H        -4.28490694337134    2.37013985010700    1.37970416702516
H        -2.80703280208321    0.63980924155194    0.61241459279165
H         0.60667496632120   -3.88147124159530   -1.15564871180050
H         3.91530813415564   -6.67730414267161   -0.17822350737079
H         5.68669576238745   -6.81324147040751   -1.88190009298886
Cl       -1.10711462228710   -1.60874702600595   -1.86248875207389
