79
 energy: -120.431032016786 gnorm: 0.000882840890 xtb: 6.4.1 (afa7bdf)
Ir       -0.17494649831409   -0.39648999870455    2.16975225298903
C        -2.19749052524505    1.59868702277557    4.11463398704693
C        -0.91648531334904    0.87093246136101    3.90556697224549
C        -0.63652570316454   -0.46595056992944    4.36863737998397
C         0.77368149244340   -0.69893890425233    4.21645934445910
C         1.54208763770140   -1.81993999538627    4.82493300117043
C         1.34223721140524    0.43963959946779    3.56724451646372
C         0.28707506036620    1.42393178135902    3.38784983757643
C         0.48594569232285    2.82977377638008    3.00131536373618
C         1.33309306256118    3.62979852713086    3.76624887530759
C         1.48949393820852    4.96804913891198    3.46709498889447
C         0.81856983999987    5.54311274368612    2.38930461295762
C         0.98417357535728    6.97047731264928    2.07730810093109
C         1.13994533485441    7.39685932673992    0.76004154785171
C         1.29849980938999    8.73950918259790    0.46983220472858
C         1.29682735601500    9.67780734345541    1.48944383878528
C         1.13838308109766    9.26470320367456    2.80235860437103
C         0.98674081029162    7.92178256372341    3.09541058338262
C        -0.01119268444860    4.73451456371563    1.61501946436049
C        -0.18069006744837    3.39884260368868    1.92048657092553
C         2.79329860476504    0.68749795204506    3.34385893584443
C        -1.57813641539431   -1.31828852761868    5.14790043328896
H        -2.28757162107554    1.84065957626981    5.17452167282741
H        -3.05917870610295    0.99188710527537    3.84469073737919
H        -2.21329157182744    2.53112334929258    3.55580347352546
H         1.86996033181970   -1.50605941673392    5.81732183184395
H         2.43053210363932   -2.05514603921862    4.24543050011359
H         0.92982807761458   -2.70914143586337    4.94509687121324
H         1.85273786108175    3.20608331974227    4.61141669942237
H         2.15283170482543    5.57549154958584    4.06421051417581
H         1.15935088236611    6.66911965616424   -0.03824491129248
H         1.42555301289515    9.05626617232472   -0.55524683662832
H         1.41794855036485   10.72663006346101    1.26119971490571
H         1.13152902220598    9.99310474988602    3.60015571199358
H         0.84807768382436    7.60883473966324    4.12008065716346
H        -0.54044260551629    5.16272854867345    0.77696976288331
H        -0.80706543268408    2.78293852656119    1.29260405987693
H         3.31931666603187   -0.23237426872379    3.10161373686231
H         2.93941801070921    1.40378815898282    2.53944327208019
H         3.23432860045817    1.09562580887898    4.25386943623635
H        -2.60860597869882   -1.12606688055793    4.86431143735325
H        -1.36435798101840   -2.37432298933129    5.00900479068021
H        -1.47001392019016   -1.08857505145340    6.20862371639542
C         7.24936348616148   -3.79366360612919    0.55508776478195
C         5.91931141489794   -4.20827970201576    1.17426961224992
C         4.78960088579441   -3.25361268139609    0.79050037510106
C         3.45315807743447   -3.68630898119074    1.39133500642825
C         2.32764914408703   -2.72813057658262    1.00952399637723
C         0.98896583092317   -3.19016220927838    1.60622862483035
N        -0.04975742799512   -2.23230646861738    1.32857148676435
C        -0.88007136871348   -2.48095834924835    0.37019037270047
C        -1.88597196990974   -1.50057006196228    0.09154781220842
C        -2.81234722194706   -1.59051658190656   -0.95104206292475
C        -3.72794692014691   -0.57477656394185   -1.12731524137536
C        -3.68454554341954    0.50979627157865   -0.24572587092303
C        -4.65350638182333    1.64935580783339   -0.41675725276205
F        -4.33023371753200    2.42656260014426   -1.46664280006043
F        -4.69994151466316    2.45456278083255    0.65305892398269
F        -5.90511893774350    1.22070568824210   -0.63496942161585
C        -2.73826563461201    0.53941107465246    0.76590796887986
N        -1.86173614368904   -0.44230158614253    0.94129286886240
H         8.03813391694774   -4.48299485215578    0.84821094486894
H         7.53039334886316   -2.79430389182150    0.88029202731160
H         7.18307465042471   -3.79312980381312   -0.53079913164657
H         6.02142634732404   -4.23305561465674    2.26149203089124
H         5.66883199840541   -5.21853781671429    0.84272681656944
H         5.03820183860373   -2.24701684746960    1.13340711838985
H         4.70556203884356   -3.21730610606396   -0.29753702670536
H         3.21392467863488   -4.69098251928559    1.03757229775066
H         3.54933652897233   -3.73423481625271    2.47782131191698
H         2.55168350234217   -1.72005309126490    1.36065761455260
H         2.23527263677414   -2.67911713376092   -0.07592773194810
H         0.72481891035581   -4.16407933435721    1.18410317488739
H         1.09518647981097   -3.28933780857774    2.68680551173320
H        -0.82969315109483   -3.39620651381439   -0.20903322547919
H        -2.79714167824206   -2.44350190216442   -1.61002997075645
H        -4.46195627331127   -0.60758198631120   -1.91753314427038
H        -2.69959356430781    1.37124391240607    1.45450417549930
Cl        0.86525774339284    0.44905292081853    0.20396877664233
