62
 energy: -109.089200765926 gnorm: 0.000438785892 xtb: 6.4.1 (afa7bdf)
Ir        0.12465499512064   -0.79464999898591    1.56732603175380
C        -1.50567423131950    0.49082899668819    4.20317338516499
C        -0.21026911208102    0.26426641189038    3.50499493256363
C         0.68362620476901   -0.82583401779516    3.74123591738678
C         0.50516855722411   -1.90303321506780    4.75285693092822
C         1.87670675596167   -0.60204802316964    2.96393612894328
C         3.15495908514187   -1.35525443522358    3.10572812150200
C         1.73276583910553    0.64324963707901    2.27349808270231
C         2.80630794514298    1.33712238358384    1.51708912955195
C         0.42033919761415    1.15745572823713    2.56037638119643
C        -0.04803880473264    2.49597630505350    2.17116087022777
C        -0.45981763303215    3.40335649105253    3.14532367693350
C        -0.84710557972212    4.67270033698636    2.75800455968330
F        -1.23829967491786    5.54518728240886    3.70735430605274
C        -0.84623445022235    5.08325952498554    1.43650380283942
C        -0.43425804056168    4.15821293754594    0.49261754806259
F        -0.42285287150146    4.52102281107231   -0.80509718854875
C        -0.03724211428641    2.87816524895842    0.82974378344031
H        -2.09806455748574    1.24637722121558    3.69571590296396
H        -1.30800158506739    0.83111908434406    5.22017101563199
H        -2.08272767867437   -0.42817686359517    4.27177107741511
H         0.92692546247610   -2.84198192458993    4.40224009246563
H         1.03214779692449   -1.61949534881331    5.66444328251181
H        -0.54326718836129   -2.04503897757527    4.99608257958899
H         3.73925660224796   -0.90686329563276    3.91032301416362
H         2.97597115452317   -2.39626253699992    3.35796445312712
H         3.74357505683396   -1.30635645697885    2.19436524276807
H         2.97614419568343    0.85924447016532    0.55273284401801
H         2.54009504540306    2.37554561526137    1.33815974581017
H         3.73690876662648    1.29237666688430    2.07994697898167
H        -0.45354372401164    3.14726461254623    4.19167465008301
H        -1.14878007125773    6.07806037667791    1.15500588702322
H         0.26405823302029    2.18678246029129    0.05761082479334
C         0.06230466780222   -7.27766675021098    3.52149679011552
O         1.35133861502330   -6.97901773987767    3.00924900483197
C         1.54353773507048   -5.83763253854060    2.33094988202253
C         2.84125413722246   -5.62529041131019    1.84692965936841
C         3.11839589752822   -4.47326019355951    1.14407233642218
F         4.36879885202066   -4.27875880141795    0.68228272110166
C         2.16700692757793   -3.49653296415611    0.90411978566209
C         0.87975021836988   -3.72146422828499    1.37762770990388
N        -0.10839000598857   -2.75557827547605    1.12414564416000
C        -1.22346032934514   -3.10596428332175    0.56412819292392
C        -2.18730078468055   -2.07295304959182    0.33375834541815
C        -3.39947152004741   -2.25125563229166   -0.33869489883033
C        -4.23604973637082   -1.17018884249601   -0.52210068470869
C        -3.82810088007374    0.06901012820905   -0.02826219136336
Br       -4.93328623823604    1.60498931900131   -0.22224107392604
C        -2.60692543105855    0.18638620436153    0.62380540324457
N        -1.81042922475935   -0.85750758867832    0.80651635743255
C         0.55962190587020   -4.87990261245272    2.08512209537934
H        -0.67301999055939   -7.35879585279416    2.71781553508132
H        -0.25528475243883   -6.52947081255770    4.25122475376336
H         0.16603934271832   -8.24171601191221    4.01450218434908
H         3.60592622241547   -6.36227362108487    2.02544494960450
H         2.40154577605130   -2.61321352132037    0.33409212066502
H        -1.40492190928683   -4.12565732634878    0.24534639261773
H        -3.66695833504016   -3.22655723172285   -0.71273373721208
H        -5.17883636166194   -1.27195601302693   -1.03592278909995
H        -2.27353945530464    1.14366851598866    0.99761230025414
H        -0.44516940413978   -5.00532427432283    2.45350195842736
Cl        0.75198948447735   -0.47745909924046   -0.70269173928278
