78
 energy: -102.390657902452 gnorm: 0.000340170172 xtb: 6.4.1 (afa7bdf)
Ir       -0.34884982108855   -0.55832613085353    1.63759442734767
C        -2.17821400212664    1.62707303580980    3.70733736346992
C        -0.98253049134424    0.78333315274216    3.41254095493902
C        -0.93057391739583   -0.61394654449833    3.79430852540370
C        -2.03863919177781   -1.34968188347719    4.46816301431858
C         0.42655915394054   -1.04798197582310    3.71780340406147
C         0.94354476078612   -2.30893164855763    4.32183350613450
C         1.18257665884803    0.00706834704859    3.11512753896015
C         2.66732000322065    0.03616819269931    2.94977887985453
C         0.31336426898694    1.17311570594212    2.99430009101558
C         0.85795885039822    2.55245440736743    2.74431727538137
C         0.12828052494494    3.39381158323658    1.69255351610117
C         0.85835782711022    4.72089630718628    1.50122755719361
C         0.93450231696292    5.48918825446046    2.81853504120343
C         1.62811411942363    4.64969640602892    3.88798185281796
C         0.90870612528132    3.31768781759862    4.07865526617826
H        -3.08791104188625    1.17339058790616    3.31917962158701
H        -2.08757669018389    2.62694257782293    3.29991272699366
H        -2.28211763018648    1.70379010830805    4.79064040858488
H        -1.89928650362451   -2.42436012216640    4.39283172485714
H        -2.05568336615291   -1.08251243450884    5.52560808668477
H        -3.00256308209393   -1.08654401800203    4.04087548009981
H         0.35760022611797   -3.17425262670652    4.02073667515849
H         1.98781473827130   -2.47702903274798    4.07678280919403
H         0.86620922371202   -2.22051643724293    5.40625913011219
H         3.08258605078973   -0.96733171581431    2.95041489571334
H         2.94178246472705    0.51701457053039    2.01380005812306
H         3.11981111654896    0.59546538167461    3.76889231419770
H         1.88657979513681    2.43791641248326    2.38980827229854
H        -0.89562119948875    3.60502572368570    2.00195373987894
H         0.10410651826707    2.85051376479595    0.74712035167479
H         0.33925140737222    5.32056613025882    0.75056682381618
H         1.86882813416933    4.53259167114407    1.13106519735603
H        -0.07465340340254    5.74257260571199    3.15256591175756
H         1.47859345766101    6.42443645317433    2.67157386923340
H         1.64685958164741    5.19397169328060    4.83446687983823
H         2.66280633889603    4.46759988175884    3.58843658834874
H        -0.10446974941884    3.50151629293459    4.43752683902476
H         1.42844527720698    2.71986200785420    4.82988050425610
C         4.70340938870302   -2.74971060894410   -0.73968540925812
C         3.58633200660989   -3.20423647899451    0.19238565005136
C         2.20649500140319   -2.63865377263984   -0.17207895447176
C         1.73017295743524   -3.07551954287818   -1.56499661715194
C         1.97112378657286   -2.02080898054792   -2.64105193669786
C         1.21363797987910   -3.10553210172367    0.92389824896512
N        -0.03232013009659   -2.39286737993429    0.85925204296706
C        -1.04138734041144   -2.95040314188826    0.27876691977218
C        -2.22129807167104   -2.15953791303121    0.07960073716572
C        -3.36518218008028   -2.64402123700822   -0.58410164531361
C        -4.42636652679927   -1.80532084799725   -0.77689493831999
C        -4.32182249034952   -0.45588212616833   -0.37788142631989
C        -5.34591797920296    0.48317287983854   -0.61084197641264
C        -5.17862360031473    1.79797061026462   -0.26864656717034
C        -3.97222689666954    2.22835110413018    0.30659869771959
C        -2.96874381847142    1.33672358674061    0.57374835975596
C        -3.12114519200124   -0.02678402437289    0.26199773967370
N        -2.12904549781548   -0.90639868132640    0.54112574744290
H         4.57628573090271   -3.15882500819827   -1.73772241405893
H         4.72942991799384   -1.66480252480561   -0.80717835202365
H         5.66323593819228   -3.09184466025885   -0.35843738811677
H         3.54056379313743   -4.29584824374718    0.18887508876447
H         3.84032100654027   -2.88771652909616    1.20641462193967
H         2.24905206087187   -1.54698575120015   -0.14138775953190
H         2.21921236893831   -4.01094747771462   -1.84432324329688
H         0.65422457069063   -3.26334979089934   -1.54137287376473
H         1.58532061502767   -2.36625758520824   -3.59798648483873
H         1.46007564931413   -1.09765325708081   -2.37856862192650
H         3.02777821923373   -1.80231124563028   -2.75947208656294
H         1.67191861658357   -2.92043481514958    1.89371599240340
H         1.04138270879322   -4.18036194837294    0.80814602735681
H        -1.00701317692754   -3.97556653826955   -0.07415366160497
H        -3.38385354417255   -3.66765816774686   -0.92005425956904
H        -5.33250567085150   -2.14896986247824   -1.25179313100971
H        -6.25680379866654    0.14572506121127   -1.08105326354821
H        -5.96311475037365    2.51403044084218   -0.45708559716010
H        -3.83955935322987    3.27466001324906    0.53334350132655
H        -2.02449619299134    1.66203493570375    0.97900148036446
Cl        0.46999604401420    0.44331610845122   -0.34769237072994
