74
 energy: -109.579597542451 gnorm: 0.000765457046 xtb: 6.4.1 (afa7bdf)
Ir       -0.98697749679185   -0.73523320312106    1.32311818024712
C        -2.01807947898660    1.65689757573706    3.67349122087384
C        -0.99718167147083    0.72318178089614    3.11378707488278
C        -0.91595674212985   -0.66012850114673    3.53974138312879
C        -1.82488492888725   -1.28474532229773    4.54389728834739
C         0.33937499436497   -1.18863564248906    3.09813567754231
C         0.94866713633239   -2.46631015660586    3.55724166046494
C         0.95086910247268   -0.20569007529838    2.26371102143729
C         2.32889000949895   -0.28390072838825    1.69741220752991
C         0.14176760563453    1.00675252375671    2.31600439136366
C         0.67061366554750    2.33616168990096    1.84923706388459
C        -0.26059308255887    3.16084193254332    0.95512916771071
C         0.45854703000468    4.42630561784710    0.49378265155706
C         0.90000976303987    5.26125198334274    1.69345857001440
C         1.80244190515624    4.44194521147578    2.61228229832289
C         1.09368352935396    3.17081147750501    3.07150412044786
H        -3.02252670913099    1.25227218511960    3.57042622681562
H        -1.98532144137614    2.63150280636218    3.20242738383185
H        -1.81938996921861    1.77955164672762    4.73869884043906
H        -1.77703394532313   -2.36887920851427    4.49769264607439
H        -1.52191200592068   -0.97423387175401    5.54452480593110
H        -2.85348449873249   -0.96943601118287    4.39058159155939
H         0.19433339314763   -3.22413332673875    3.74852684361340
H         1.66096806594788   -2.85546158384625    2.83571618181529
H         1.47922467692638   -2.27493625414179    4.49086668732686
H         2.66304507186031   -1.31453211238391    1.62895569090662
H         2.36702997648482    0.15554371760152    0.70350174433148
H         3.01935478820105    0.26200702162071    2.34094800058178
H         1.57008705978996    2.13702410110873    1.25930572126275
H        -1.15966398237718    3.45487435531117    1.49725016672328
H        -0.54885921764621    2.56538519739339    0.08754403068638
H        -0.20502603848725    5.01385663464294   -0.14354504343200
H         1.33250257752864    4.15458759402074   -0.10218371245416
H         0.02041604606055    5.59433936438004    2.24946071194804
H         1.43090156266885    6.15148936792612    1.35065399405860
H         2.08639045580125    5.03737555430573    3.48251753442687
H         2.71759560534097    4.17839855935645    2.07722208720563
H         0.21555124303677    3.43947411954495    3.65937489914374
H         1.75877125093115    2.58413255457669    3.70822700062841
C         4.49485718590468   -4.21317287127134   -0.86488778484578
O         3.34459303662480   -3.40463257783370   -0.69478099019748
C         2.26787463040332   -3.91204974943952   -0.06876191405756
C         2.20173178383864   -5.18780374598458    0.49372763703337
C         1.03172028930329   -5.59663265613949    1.11603843466037
Cl        0.96175793896160   -7.18434292887173    1.81599496011520
C        -0.07995568509199   -4.77917345330257    1.19181258895199
C        -0.00575270033422   -3.50050196501996    0.63172599660794
N        -1.11181181560550   -2.64020761475735    0.68443876790991
C        -2.28777678816274   -3.09089772487049    0.38144476448389
C        -3.37115684719724   -2.15805864390098    0.40310885755340
C        -4.69045478064022   -2.51298566529042    0.05587671527078
C        -5.65909754328962   -1.55029750703914    0.04986412126045
C        -5.30226992130647   -0.21120371371868    0.31742817690116
C        -6.23232997633739    0.84519040393262    0.25834536336722
C        -5.83446643746051    2.13931625416751    0.46170329295310
C        -4.48471287123041    2.42847020215426    0.71909024567233
C        -3.56136647292991    1.42266198658742    0.81270988169122
C        -3.94225070455722    0.08021748375300    0.63565475654372
N        -3.02098041698154   -0.90803304476237    0.73982596717929
C         1.15765834508642   -3.06647099279829    0.01593070037050
H         5.20029725457919   -3.59736565106423   -1.41841546613207
H         4.26557286763123   -5.11216546450460   -1.44231578706252
H         4.93140308531934   -4.49151870711209    0.09774902167871
H         3.03953889037710   -5.86299225233108    0.45559336405434
H        -0.97083644276032   -5.11455149561744    1.69538015784851
H        -2.43962171247126   -4.11309239326475    0.05520062720359
H        -4.90786611789551   -3.53940079746757   -0.18954054467041
H        -6.68579443788359   -1.78944576874187   -0.18064630372100
H        -7.26151778634932    0.61308238922055    0.03120437231794
H        -6.55044406601170    2.94435690871976    0.40742809172860
H        -4.17785501369191    3.45563491889228    0.83835220054587
H        -2.51649611785744    1.63195846285170    0.97121168006079
H         1.20066614657616   -2.09002675698751   -0.43847198010608
Cl       -0.57723810465333   -0.04927944330937   -0.91980798435650
