68
 energy: -123.563720142747 gnorm: 0.000332733868 xtb: 6.4.1 (afa7bdf)
Ir       -0.67353915613934   -1.02466120083713    1.30137495838318
C        -2.16540683601572    0.70039744992588    3.82884632505644
C        -0.91979925332625    0.14794457466696    3.22964189095964
C        -0.36687428739992   -1.14346183581591    3.51105950245732
C        -0.90648245172609   -2.11295625660791    4.50487810198232
C         0.93434479544009   -1.21759465672311    2.88925042194358
C         1.94985678257244   -2.27218460321032    3.16380010878381
C         1.13964818322566   -0.02417246197227    2.14887018563501
C         2.40694696254710    0.40381330047909    1.49719272944398
C        -0.03094673914518    0.82375491613961    2.33704895051104
C        -0.09150163865372    2.24961349867525    1.97121757870238
C        -0.19656938009724    3.20236417066395    2.98327354423878
C        -0.19864508324404    4.54237442085334    2.64532167343514
F        -0.29618569723087    5.45778899186643    3.63159734392323
C        -0.10368244108689    4.98228444144263    1.33716466838407
C        -0.00731376266251    4.01088944075901    0.35601956238027
F         0.08124045575087    4.40227261944730   -0.93155132537996
C        -0.00091786274410    2.65931116392499    0.64382668822865
H        -2.46273088590854    1.62108491930658    3.33499899469099
H        -1.98444113197548    0.91638006683217    4.88225560355605
H        -2.98168485779936   -0.01662577473017    3.77913767251114
H        -0.59754998401826   -3.12763718552643    4.27008048139619
H        -0.51777795676601   -1.86333465514831    5.49279505141688
H        -1.99083246309372   -2.06900684324974    4.54775756363990
H         2.47475979386136   -2.01605402822911    4.08484235428497
H         1.48792948369856   -3.24639361116979    3.29899533310484
H         2.68220954801606   -2.33816547817572    2.36495589896818
H         2.98237795357354   -0.45214987513677    1.15630182382659
H         2.21265646045981    1.05799872446609    0.65216777791726
H         3.00815910489127    0.95477393981983    2.22165030623000
H        -0.25111607634397    2.91632457093489    4.02080147578862
H        -0.10317044858589    6.03173562795598    1.09421501685907
H         0.05391763159536    1.93911554759809   -0.15762007336246
F         4.56566907056404   -6.11706065913715    1.01939576641497
C         3.38890079049485   -6.68133882955575    0.69107772602957
F         3.56677433579079   -7.22108407765776   -0.53356114799293
F         3.21529730507387   -7.71246846972066    1.53147952373925
C         2.25362259804510   -5.69695296361646    0.71391295225520
C         2.45132236271760   -4.43556332505633    0.15999770234607
C         1.41658442629510   -3.52149659073921    0.15314696327535
C         0.17384689665178   -3.87497886429650    0.67826334478344
N        -0.87240609315204   -2.94157838136038    0.64714831287757
C        -2.02099941467746   -3.26701918690920    0.13847958222877
C        -3.02315487616687   -2.25271999837781    0.11321720031081
C        -4.29883790074555   -2.39753235678092   -0.44404784943196
C        -5.16246627966794   -1.32831264128456   -0.44802848360316
C        -4.74064172636222   -0.10364056823579    0.09922092782849
C        -5.58620191952211    1.05584072288683    0.12677372523248
C        -6.88276938746127    1.25773784812592   -0.30774764699125
C        -7.19105744291992    2.59970811781495   -0.02383796760821
C        -6.07227875543256    3.12674172084197    0.56099110039602
O        -5.10753787232030    2.21023267925309    0.65716644245083
C        -3.44542909378911   -0.03765496313366    0.63519394534244
N        -2.62302055428576   -1.07113282253844    0.65527407024081
C        -0.02041781549145   -5.14267862136202    1.22588620347944
C         1.02113298408188   -6.05183185108868    1.24833633911366
H         3.41173258746121   -4.17775808454198   -0.25883906812981
H         1.54480765469019   -2.54381918881825   -0.28571289152030
H        -2.19652013836609   -4.24595114403468   -0.29228952618315
H        -4.58456122685356   -3.34584575168980   -0.86944342175605
H        -6.14814393985792   -1.42227913097498   -0.87253870963650
H        -7.53153378599482    0.54236127265244   -0.76847706703553
H        -8.11154742551692    3.10731295185879   -0.22417172241661
H        -5.86001948116512    4.10887787929514    0.93566446818683
H        -3.08776610225353    0.89253203608755    1.05144660463669
H        -0.97695756971755   -5.40812319058472    1.64814697619881
H         0.87895510510424   -7.03163092089674    1.67706311846302
Cl       -0.17844807689031   -0.48644156569039   -0.96852568339947
