75
 energy: -127.786606696134 gnorm: 0.000285709605 xtb: 6.4.1 (afa7bdf)
Ir        0.30564049230562   -0.53283056979826    1.62736333185383
C        -1.08608722565734    0.87228441184140    4.34984724939808
C         0.14819137474922    0.47857854529304    3.61567650433272
C         0.87119348321020   -0.73634971109056    3.83228436282928
C         2.05774898467141   -0.69828599576120    3.01497636555619
C         3.20165075654503   -1.65469215672479    3.06763912562112
C         2.11929021156580    0.59282677157844    2.38332426899144
C         0.91386949527094    1.30119707742516    2.70525887421158
C         0.64536192621357    2.70072840740933    2.35168001618012
C         0.33385578310038    3.63759041279761    3.33661958178973
C         0.13641684460598    4.96216152797166    3.00119118633499
C         0.24104214133957    5.39185879540068    1.67897688970906
C         0.06657499874493    6.80966932785784    1.33238635083109
C         0.92129499303686    7.41895866647929    0.41556343225598
C         0.77552850325691    8.75712448461675    0.09986372066294
C        -0.23065548387482    9.50578892319304    0.68873010166421
C        -1.08942461041545    8.90820754561846    1.59716162880825
C        -0.94042393152671    7.57198064468495    1.92063667052692
C         0.53813523226403    4.44890566292733    0.69551785424084
C         0.74053714999782    3.12417122835104    1.02462936015106
C         3.29130269545537    1.13617277931623    1.65272889105071
C         0.54634913507354   -1.72166247678997    4.90092065279547
H        -0.81646517561983    1.18045197554769    5.36086782789430
H        -1.77298344188244    0.03372380518465    4.43652129317411
H        -1.59071541303577    1.70140996014345    3.86145060750018
H         3.89170669264849   -1.34004526663959    3.85148082830523
H         3.73606246784234   -1.65908699757779    2.12183976397272
H         2.86953406649327   -2.66447134315300    3.28742367048512
H         0.28518848686273    3.33640704165782    4.37080185226432
H        -0.07484525154397    5.68151032082809    3.77758125031652
H         1.71902100743047    6.84602787248687   -0.03429922586167
H         1.44979701108454    9.21897178230424   -0.60670056107388
H        -0.34468914494879   10.55076144411555    0.44061580612145
H        -1.87835116495528    9.48728227789500    2.05464699782233
H        -1.62455892152414    7.10949233074675    2.61709044062793
H         0.59734446320228    4.75594710613330   -0.33767978507962
H         0.95697365789734    2.40226143891499    0.25085462688475
H         3.36904116416460    0.69468413069114    0.65923881365452
H         3.20241972950207    2.21363754308607    1.53900517501126
H         4.20343759788202    0.89799152954174    2.19679239028887
H        -0.47624129232590   -2.08418576097994    4.82111118231650
H         1.23430249452737   -2.56094126331789    4.89154422998774
H         0.63714284739067   -1.21995035294164    5.86520150588516
C         2.97905996492635   -6.70285132982261    3.48629338975320
O         2.14705762914245   -5.56043464841692    3.37017423965065
C         1.75483135029353   -5.15463026619454    2.14734726104639
C         2.12571497784994   -5.75139784653764    0.94083297476823
C         1.66081110126299   -5.23561545471394   -0.25701076465675
C         0.82360283134910   -4.13958119859393   -0.26486101129199
F         0.38592743285413   -3.65300132109514   -1.44609610675764
C         0.44858052034564   -3.50858878179773    0.92949567053349
N        -0.35151163613013   -2.35930133409067    0.93230083977650
C        -1.41907622367025   -2.32774698038108    0.19269252201601
C        -2.11198477187673   -1.08184390917142    0.08211287466155
C        -3.26173082408233   -0.88691473690652   -0.69060986192573
C        -3.81861792714719    0.37228272290039   -0.76421327801770
C        -3.19674834731299    1.40780528094973   -0.05978185749859
C        -3.72746458093400    2.81531386494232   -0.12659235495402
F        -3.17469368940125    3.51015679690357   -1.13704825990781
F        -5.05229330526197    2.85576323445481   -0.31639385894992
F        -3.47276443643287    3.50785917355465    0.99302848324099
C        -2.05817985147992    1.14950398164171    0.68594137878903
N        -1.53104738796872   -0.06579567164244    0.76894203573797
C         0.92036884804263   -4.03563873232281    2.12337479989103
H         3.14259995388842   -6.83193424784502    4.55393447407368
H         2.48930223614053   -7.59203107370166    3.08258359115379
H         3.93792532896954   -6.54593471897154    2.98645426887845
H         2.77002723667589   -6.61412954881754    0.92020066329926
H         1.94159385564136   -5.68403578664948   -1.19661589236065
H        -1.77157861865984   -3.19830960912520   -0.34787806900313
H        -3.69262575794811   -1.71681274460477   -1.22695653886494
H        -4.70784596007879    0.56076700838924   -1.34561275501258
H        -1.56263770231405    1.94748076751698    1.22245138501782
H         0.60525619303625   -3.60007473350576    3.05491204273445
Cl        1.15246172936765   -0.32187103356478   -0.58281439615736
