63
 energy: -99.153566863961 gnorm: 0.000615911672 xtb: 6.4.1 (afa7bdf)
Ir       -0.74647053343596   -1.36398999314162    1.08352754511978
C        -1.76599346677880    0.99912635699148    3.47589072731980
C        -0.72008396153507    0.16346998436539    2.82661832624684
C        -0.37532495150264   -1.16896905516116    3.26983862183217
C        -1.00269395947212   -1.86626311317758    4.42961925629168
C         0.86488750859848   -1.53671751905285    2.64705526569925
C         1.72720527245104   -2.67856179775060    3.05927506762314
C         1.19409172906580   -0.51262734666082    1.70629000401250
C         2.46182813024047   -0.38152208486935    0.93459723594704
C         0.21197544332971    0.55133844026150    1.83384010723450
C         0.36037706328648    1.88899227316338    1.19288616858344
H        -1.45398929547267    1.19983973091991    4.50164661378885
H        -2.72380102706827    0.48514917298016    3.51810422682693
H        -1.89765897966184    1.94550011903827    2.96225697149276
H        -2.06611332614028   -1.65156889604097    4.48723247018180
H        -0.86039238911505   -2.94152751207985    4.36598757593229
H        -0.53611601222509   -1.51797430385584    5.35183707131120
H         1.13391616591644   -3.52329286611286    3.39686943703701
H         2.37296671214367   -3.00880744456768    2.25114157058555
H         2.35532381752710   -2.35081658058757    3.88842107529026
H         2.25535548823003   -0.11692397970417   -0.10061449302528
H         3.03563201193515   -1.30274546648099    0.96258888914456
H         3.06341030050384    0.41758300426260    1.36800841918225
H        -0.54301702254262    2.48251413309584    1.29284133233517
H         0.58782565676554    1.78220521815009    0.13466657305994
H         1.18589208723147    2.42358911450551    1.66377054429993
C         3.44712514782696   -7.95824524600526    1.32531845318339
O         3.39563479639039   -6.74770521504883    0.59431776100969
C         2.29127968701757   -5.98063583391265    0.67749286906335
C         1.16646138057171   -6.27138299797992    1.43849155540077
C         0.07465270123794   -5.41988481228837    1.45151965526290
C         0.11108194605095   -4.23569601648303    0.72483824714820
N        -0.96424810675146   -3.34724206633758    0.71773962755137
C        -2.17262038355592   -3.79167669356620    0.56458946688196
C        -3.22526546816548   -2.83352484466106    0.45946195222935
C        -4.54051520863245   -3.15718847682587    0.12551549558642
C        -5.45950802722117   -2.15589796503823   -0.10887008938647
C        -5.03801067538772   -0.82481622159601   -0.03815593377752
O        -5.77713697351195    0.25712312006092   -0.26971529271300
C        -7.14535350790818    0.11138100850419   -0.62059202219916
C        -3.69490278268421   -0.58693514277066    0.31843015357693
Br       -3.15077346782969    1.20829835568336    0.35495798877643
N        -2.82465239208195   -1.53997731360971    0.59696235753926
C         1.24442540241237   -3.91585178651916   -0.03367344915490
C         2.31878441782091   -4.78104833376996   -0.08789228736332
O         3.43722572470058   -4.58538378676903   -0.82211270713007
C         3.49161835561930   -3.46576561890363   -1.68379099548164
H         3.36464170184266   -7.77613034175816    2.40018125402568
H         2.66386946139142   -8.64980612137676    1.00363590678244
H         4.42202279115334   -8.38760547612737    1.10425628807787
H         1.12763707167701   -7.17340450438117    2.02589718673741
H        -0.78385952521289   -5.65928131244414    2.05854519259318
H        -2.37585680217605   -4.84615082822736    0.42040964638042
H        -4.82577483528708   -4.19273085667523    0.03926314514419
H        -6.47740674862077   -2.39915333261674   -0.36521152619090
H        -7.70281192052073   -0.38464986824852    0.17668272586377
H        -7.25307835325234   -0.44115362870176   -1.55650869707194
H        -7.51538652406781    1.12590432811385   -0.75033733837491
H         1.22740180413001   -3.00269537618684   -0.60594152336247
H         2.67759414900541   -3.48627336718744   -2.41325469942872
H         3.45451278620888   -2.52768292169940   -1.12428159507338
H         4.44606684525706   -3.54316411471493   -2.19993807559830
Cl       -0.49112492973680   -0.96047997841681   -1.26185329987348
