73
 energy: -125.666690071205 gnorm: 0.000729593758 xtb: 6.4.1 (afa7bdf)
Ir       -0.48970213557959   -1.03441097365733    1.58867433678824
C        -1.85741771116435    0.94151836587647    4.04152886302869
C        -0.66272394871163    0.26455943683023    3.47185440191002
C        -0.24793181215476   -1.06533971276012    3.82197779693240
C        -0.90795245418935   -1.90648422258621    4.86045025420576
C         1.04618492810506   -1.29680946343258    3.23422298434706
C         2.01046779144962   -2.37130600064787    3.60104698026728
C         1.38278866299427   -0.15276409924973    2.44641496920547
C         2.69749214263212    0.09265280148033    1.79383485767890
C         0.32108658464474    0.82234806278819    2.59676251140457
C         0.45489005552121    2.22585862759328    2.18669134458423
C         0.26846779401622    3.24127168752678    3.12282926727969
C         0.45917178495793    4.55450137636034    2.73676661522442
F         0.28306809571762    5.52935475838313    3.65211553508893
C         0.82488853608654    4.90969733129345    1.45088604646157
C         1.00418762244157    3.87747931551035    0.54623993713763
F         1.34904235325619    4.18577121460388   -0.72230829589997
C         0.83556605103307    2.54985100981149    0.88539870733010
H        -2.06711429215576    1.87413647285246    3.52808353174623
H        -1.67395501395912    1.14815670993905    5.09677714821733
H        -2.73581943597060    0.30257452319338    3.98472647360835
H        -0.66798192402101   -2.95780874012736    4.73583499601289
H        -0.55837967470098   -1.59211769456255    5.84464560940043
H        -1.98711151988330   -1.78569296899179    4.83396585684905
H         2.83377403254389   -1.91618812918311    4.15318001955279
H         1.54999725629504   -3.11785032924924    4.23783916613336
H         2.42561274185041   -2.85695721599277    2.72155293064675
H         2.65398726728158   -0.13566290535756    0.72929769571883
H         2.97018034534713    1.14140277258832    1.89342712362475
H         3.46633136773602   -0.53086373333136    2.24156214465428
H         0.00669927357913    3.02469751975669    4.14470602456817
H         0.96567730726432    5.93943922512168    1.16775996371185
H         0.96499344763531    1.78225285805548    0.13878694803681
C         0.76563843156917   -2.65656698940759   -3.64906927728739
O         1.12895994920637   -3.30344228455706   -2.43227241682298
C         0.15636550562532   -3.55263541705131   -1.57016751233690
O        -1.01860009920124   -3.33143893347159   -1.78346342523488
C         0.66935461387372   -4.21698712311409   -0.33533776547607
C         1.70560529009639   -5.13515741464118   -0.44966601100009
C         2.16300421436476   -5.83422717377055    0.66738365575236
O         3.14616698964136   -6.74856887566434    0.65471463583203
C         3.79277243973128   -7.05899275203040   -0.56722400287178
C         1.55877475111295   -5.59384222075294    1.90960411153041
C         0.56338616800953   -4.65283572876660    2.03492242347001
C         0.11277353318757   -3.94524170751920    0.92283588457989
N        -0.88462436113397   -2.95597336307268    1.03409782742451
C        -2.04380838271227   -3.21252226037493    0.52095984815605
C        -2.94955017583393   -2.11903162560132    0.34282190384595
C        -4.17688414734756   -2.24629250892986   -0.30890956272048
C        -4.91315727001125   -1.11068477475314   -0.56921621029166
C        -4.37765675791025    0.13071683142318   -0.20878293458143
C        -5.13720147640469    1.30183620345589   -0.43609940049079
N        -5.78493591578524    2.22925712421964   -0.62016280671077
C        -3.12225058910227    0.18911659012597    0.41842973878781
S        -2.36417706416114    1.73000587679137    0.82206327708951
C        -2.25728290710215    2.49884207941032   -0.82095813615221
N        -2.45416505704594   -0.92018780504141    0.73715158881553
H         1.65863639109230   -2.65307512034649   -4.26725387143869
H        -0.04833056455115   -3.19500472467128   -4.13723206508361
H         0.44298101346285   -1.63591068652901   -3.43570744145913
H         2.12779500467694   -5.30426112204953   -1.42600632697354
H         4.27829061499951   -6.17784088404063   -0.99381250909412
H         4.54582257608546   -7.80257112338934   -0.31487966515549
H         3.09035881467723   -7.48298582599953   -1.28933552949063
H         1.89690191576583   -6.16201152731449    2.76050651265551
H         0.09128896129287   -4.48238100863617    2.98765376860005
H        -2.31023153512449   -4.20598001759388    0.18307232083419
H        -4.52196592416718   -3.22081225850599   -0.61132518370904
H        -5.87940047966973   -1.16033351002342   -1.04724285804364
H        -3.24035242019459    2.76020560566966   -1.19643572462868
H        -1.66656274020663    3.39729400161494   -0.67395898269612
H        -1.73601406865557    1.81863036637592   -1.48682560448043
Cl        0.24795623752446   -0.66543879182047   -0.62903301840821
