88
 energy: -116.411627807864 gnorm: 0.000257931570 xtb: 6.4.1 (afa7bdf)
Ir       -0.92660354379883   -0.76785179487459    2.04842536456109
C        -2.25916886807517    3.09156665048543    3.47182607147116
C        -1.33389092941863    1.95006312433684    3.66832614882703
C        -1.72104724910425    0.59980110145749    3.61522456525042
C        -3.14561958522427    0.10190368818164    3.70569994633345
C        -0.55621542376231   -0.21129092338637    4.01877471882979
C        -0.71853082412101   -1.38793248551779    4.95026100474082
C         0.52660593976899    0.76062656048497    4.25207187236505
C         1.91767683102087    0.37293932386088    4.59449760504780
C         0.05277641142071    2.03277193886733    4.03654063612081
C         0.91069783395634    3.26196433760698    4.10168326927412
C         1.13950561290288    3.86599062024967    2.70847161595963
C         2.13874995317346    5.01565957247469    2.79512451952983
C         1.64660441524532    6.08427481384830    3.76838775751304
C         1.40178247703013    5.48025981334339    5.14923599774613
C         0.39121036668045    4.33896234891239    5.06104825965667
H        -3.15900983943581    2.78745256094835    2.94434088828145
H        -1.78717924299391    3.90768599813930    2.93276217950920
H        -2.56088057199898    3.46920735993896    4.45041128030979
H        -3.49911641610413    0.17931819372788    4.73544337878677
H        -3.81273986868751    0.68875046399029    3.07788888386696
H        -3.23140700085153   -0.94886653176115    3.41304045365590
H        -1.11533326150440   -1.03523546694251    5.90324578186057
H        -1.41239285650344   -2.13382131728590    4.56121039592928
H         0.23896690408980   -1.86205894446449    5.14657269455210
H         2.03431212419482   -0.70558373288575    4.60255042880961
H         2.61319997512793    0.78818003637692    3.86733150604349
H         2.18886736179229    0.76189064645214    5.57569885057144
H         1.88868256314164    2.94784292751575    4.47810172442643
H         0.20189250115246    4.24262334131202    2.29915367171591
H         1.51137139990983    3.09168025571653    2.03597986645112
H         2.28444092230626    5.45455215008069    1.80560297656699
H         3.10532268894979    4.63682629668869    3.13513178950909
H         0.71641919980533    6.51828124513754    3.39305339914232
H         2.38091386031629    6.88992313080232    3.84021560600404
H         1.03279700319100    6.25042471315803    5.83076404413603
H         2.34592144162592    5.10606669088977    5.55253204224084
H        -0.55768340124606    4.74258624371688    4.71150318681314
H         0.23252420549201    3.90561841853927    6.05110641491104
C        -1.04922722274192   -3.30644942299640    0.99614068235400
N        -0.19149827720519   -2.56826508481797    1.60724180718185
C         0.99613595543256   -3.16741746944155    2.16455401518476
C         2.28581200349551   -2.56270895470029    1.60279929376315
C         2.38503458670856   -2.71939593337031    0.08198017922643
C         3.71690894893224   -2.21185798991691   -0.39566257189707
C         3.93169269408826   -0.84527711614661   -0.53159746017412
C         5.16579011191424   -0.36496875758004   -0.93159532336272
C         6.20263532521332   -1.24470155931548   -1.19880349022021
C         5.99817686335005   -2.60720786599760   -1.06312126605666
C         4.76226162126663   -3.08605320362185   -0.66217609356146
C        -2.21964867229033   -2.71202513902536    0.39779278691199
C        -3.27786199857162   -3.48075705079627   -0.05546544412588
C        -4.38502372830295   -2.81740440923598   -0.58265457012328
C        -4.35544150144242   -1.45272174286944   -0.71214909978777
C        -3.20813713496227   -0.72054837673615   -0.30951017213346
N        -3.07729686650917    0.59615332982201   -0.54996740722646
C        -4.17949687437188    1.45961238233751   -0.92295267130532
C        -4.06330871325404    2.78832540500751   -0.17138437184946
C        -2.71782761771694    3.45581679487794   -0.43672062601052
C        -1.59136158882186    2.49173488247491   -0.07983828921514
C        -1.78133312173941    1.18633689214971   -0.83939556054706
N        -2.20123654656304   -1.35948593681006    0.32324700375117
H        -0.91157708147800   -4.37985429215645    0.90481600886181
H         0.98156074407503   -3.00411712863633    3.24491909373594
H         0.98495668336264   -4.24615198330021    1.97381033742895
H         2.33533207759945   -1.50440437892999    1.85231720531422
H         3.12641402217458   -3.06993288274336    2.07748779291000
H         1.58572148546576   -2.14116168930608   -0.38442578342675
H         2.27052111915257   -3.76969932675412   -0.19341599737680
H         3.12550892690664   -0.15927020890235   -0.31753306349789
H         5.32327012597123    0.69886040736134   -1.03612262976538
H         7.16675059172107   -0.87065191508169   -1.51291916622882
H         6.80338462690557   -3.29805662444870   -1.27082618134975
H         4.61215525028154   -4.15195743043212   -0.55921917902494
H        -3.24923831988062   -4.55438066552251    0.02075918682746
H        -5.24434571727253   -3.37684111281562   -0.91845582007140
H        -5.18127714877919   -0.94666643939007   -1.18085917077475
H        -5.12999026543092    0.99677188846049   -0.66150691770226
H        -4.16139110667990    1.64573286238959   -2.00427148256817
H        -4.88127631877775    3.44036218127222   -0.48051049542441
H        -4.17115539144110    2.59878114283232    0.89797717750835
H        -2.64701337879710    3.72659707926423   -1.49255514247073
H        -2.63654538161494    4.37378383217232    0.14659261508871
H        -1.59224890433382    2.28434402482210    0.98980876033738
H        -0.62201094866714    2.91611217862430   -0.33819646843277
H        -1.74055475594833    1.38876314762945   -1.91805253600203
H        -0.99537470523511    0.47602788505891   -0.59229471492406
Cl        0.82535741516862    0.45040840527083    1.25915542308706
