61
 energy: -98.982999302211 gnorm: 0.000225798710 xtb: 6.4.1 (afa7bdf)
Ir       -0.44512547641939   -0.42941177179399    1.34550804811776
C        -1.89594478607972    1.90436927025453    3.47687186708273
C        -0.70943629281464    1.13109129592034    3.01311867046258
C        -0.33656106584145   -0.15906588301208    3.54868415687836
C        -1.06463735778892   -0.85924183551928    4.64505533262384
C         0.99371030716928   -0.46200395830922    3.09143028519512
C         1.85948206968805   -1.55086255779454    3.62095896392149
C         1.37513116033320    0.55073412355586    2.16649860686270
C         2.71418775278848    0.73647779143503    1.54117630514814
C         0.31886668112120    1.55166694425178    2.13314092857047
C         0.46125148859958    2.87063611636346    1.45193164290505
H        -1.76101676226432    2.14262750946392    4.53220758785406
H        -2.81233574874180    1.32630425405890    3.38081458603277
H        -2.01115091005812    2.83247182504295    2.92693721487767
H        -2.13806426389216   -0.72253020046113    4.54924637819760
H        -0.84053567158751   -1.92198139207826    4.65189060290094
H        -0.75429540137319   -0.44195856003823    5.60383482945001
H         1.27274085471552   -2.41184759228347    3.92758011569339
H         2.59542577673796   -1.86954969078512    2.88820141114857
H         2.39133289871365   -1.17454850328770    4.49568389565205
H         2.61184604218481    1.06435805229960    0.50914616247081
H         3.29253436413162   -0.18192697224843    1.56607259970367
H         3.26093388377895    1.50651010216567    2.08627430238114
H        -0.43766827121782    3.47233049295006    1.54809233198815
H         0.68307692931528    2.73361513718882    0.39474484421084
H         1.29317426273366    3.41553850567599    1.89784595286475
C         0.93982120309698   -6.91064198978394    2.98575208732224
O         2.05779532894970   -6.35490671531435    2.31574876958024
C         1.92343210249296   -5.17006953507237    1.69356128127845
C         0.76577174570376   -4.40043429923678    1.65333619750522
C         0.75245765126372   -3.17221432105009    0.98691829900035
N        -0.41751306895442   -2.40378635207825    0.93578126003213
C        -1.55558811718654   -2.96180250761211    0.65586854472488
C        -2.68774606801660   -2.10023724639778    0.53334259004111
C        -3.97456769676050   -2.56254022673744    0.18702873661003
C        -4.98460572336771   -1.66009225247548    0.02039749433761
C        -4.70162685932090   -0.27844869961504    0.12288756578486
C        -5.67956616922636    0.70330066903305   -0.11795634012165
C        -5.34602115700329    2.03354128928577   -0.07619978433396
Cl       -6.54232933256012    3.24454881214851   -0.38741372216106
C        -4.02424908222195    2.43313836736659    0.19068334924639
C        -3.06462520149247    1.49617739053365    0.45566543348568
C        -3.37283618036650    0.12113912977277    0.45247199861978
N        -2.41492891308123   -0.79804620041964    0.72237038288215
C         1.89634757447619   -2.69390902884598    0.35462926922804
C         3.04886370055271   -3.46034109970101    0.36623526741985
C         3.05638248813728   -4.67057748787354    1.02672479089617
F         4.18808752494501   -5.40430101617908    1.04217590270108
H         0.11895801045452   -7.10256273628545    2.29044130498375
H         1.29283719325095   -7.85349468481443    3.39773484305383
H         0.60452608744161   -6.26184609218909    3.79846274512018
H        -0.12557603544492   -4.73196708308290    2.16048958873741
H        -1.63508902236615   -4.02011449105339    0.43869487367750
H        -4.13570167969995   -3.62139593651688    0.06788899193034
H        -5.98804142134404   -1.97844847915426   -0.21487546823065
H        -6.68574051544641    0.39572375914821   -0.35392614710067
H        -3.77941220007822    3.48261867056403    0.17303393484826
H        -2.03970566535982    1.78983008830922    0.61456641501873
H         1.86010817816716   -1.75484218679154   -0.17340947450047
H         3.94497570799411   -3.13042240373580   -0.13405990909579
Cl        0.00706214843085    0.09366239284954   -0.94037069571815
