57
 energy: -91.105450869217 gnorm: 0.000785214429 xtb: 6.4.1 (afa7bdf)
Ir       -0.87223850041792   -1.07014208217547    1.27370079984127
C        -2.34919870494848    1.01997728120819    3.62316917187845
C        -1.17246089528114    0.25202098174446    3.12821457786825
C        -0.89633205976607   -1.11817383637948    3.49504893725812
C        -1.72443621486284   -1.92987844136641    4.43205703576300
C         0.44597548493176   -1.42826822892720    3.07714542992166
C         1.22547555826255   -2.62307760801589    3.50201478913207
C         0.93494397659655   -0.31858307044360    2.33148968310188
C         2.31875341621972   -0.12315183261066    1.81616542412794
C        -0.06990233103776    0.73338680556451    2.37725458861618
C         0.18163770478558    2.12653437543328    1.90696026907862
H        -2.24542088751306    1.15183743390344    4.70059552640158
H        -3.27961774341841    0.48689221101445    3.44181776281836
H        -2.41368955508385    1.99978755475097    3.16193426591139
H        -2.78281035206332   -1.72610431381556    4.29557643780189
H        -1.54672556632650   -2.99275380071703    4.29435814063116
H        -1.45937685172207   -1.67394503261193    5.45883516277819
H         0.58675201714984   -3.49139768366212    3.63681809327446
H         2.00479284607492   -2.86745425141883    2.78594945780049
H         1.70056667896471   -2.40082277148539    4.45838595398855
H         2.29939353115629    0.34760045755211    0.83582425054349
H         2.85130564353686   -1.06653759769556    1.74582019873653
H         2.86432847881833    0.53391594979938    2.49392065647721
H        -0.68563651941441    2.76335692031465    2.05352505505108
H         0.45179435838654    2.13358318393221    0.85212809986395
H         1.01801070934389    2.54572775040192    2.46579013158456
Cl       -6.55835130859982    3.24854127647935   -0.37939879620082
C        -5.47386309983380    1.92106300524518   -0.14398881325012
C        -4.15035249593686    2.18249139815393    0.25399773254346
C        -3.27981633207079    1.14895559101040    0.46171237376312
C        -3.68086677878401   -0.18802909746598    0.26749789239080
N        -2.81003355764844   -1.20424161498906    0.47808220052997
C        -3.15893205553187   -2.44914524679585    0.11060392773152
C        -2.10025868471252   -3.40408025452927    0.18864379672439
N        -0.95021579717013   -2.97283030021102    0.60857494670253
C         0.15443526389393   -3.83110411126772    0.64192980333011
C         0.05084368513290   -5.12320684565238    1.16030967072969
C         1.15650745903414   -5.95087551516236    1.18567309429047
C         2.36361102798815   -5.49401266188141    0.67574157727246
Br        3.89756994594241   -6.64935989124170    0.70084770001769
C         2.47941984950779   -4.21299301418808    0.15364806359099
C         1.37911138291313   -3.37890879537794    0.14804267332482
C        -4.44848606399517   -2.76641910691230   -0.36445781587645
C        -5.38001273871435   -1.77543291868993   -0.47611588778001
C        -5.00791635668336   -0.44161258527219   -0.18956697075435
C        -5.89521118710540    0.63472986819635   -0.36823322340334
H        -3.83357724138283    3.20481468348354    0.38289744067949
H        -2.25185661666262    1.34112991783907    0.72350331702285
H        -2.23603322277207   -4.41923463871051   -0.16552649945379
H        -0.88654871063541   -5.46873887698418    1.56886271872907
H         1.08314353273902   -6.94526741190082    1.59619917709046
H         3.42156833718783   -3.87354170559653   -0.24507138521401
H         1.44417576089322   -2.38464497661615   -0.26646818758142
H        -4.67411940146989   -3.78833224668429   -0.62134147398478
H        -6.38515878198582   -1.98502440009036   -0.80671430522047
H        -6.90106398178898    0.43626983772276   -0.70204392118900
Cl       -0.20081505412853   -0.30049971619265   -0.88411272680466
