62
 energy: -108.445020533716 gnorm: 0.000559832657 xtb: 6.4.1 (afa7bdf)
Ir       -0.53193515596458   -0.81266870686767    1.66565491640194
C        -2.18636218914633    0.85551785400632    4.12843728256152
C        -0.90720071646726    0.30263537125266    3.60581167413350
C        -0.39250413196741   -1.00485399470118    3.89227589892637
C        -1.01666870460260   -1.98702132081817    4.82182836802332
C         0.94652504900360   -1.08131474496005    3.36385231004954
C         1.92869866602608   -2.15498406222228    3.67867693452664
C         1.22157391545165    0.13285907827635    2.67316200487496
C         2.54327725040637    0.55738701635738    2.13834798449787
C         0.05548401239690    0.99484391104157    2.80820353122505
C         0.03711246829624    2.43298596641291    2.48667195754089
C        -0.11713936862289    3.35370501315751    3.52163191421019
C        -0.08455875926629    4.70418085385491    3.22810762770556
F        -0.22955310066167    5.58810061298946    4.23611659907130
C         0.09104064138584    5.18392016345829    1.94242127216999
C         0.23648603882756    4.24317610569377    0.93749388625396
F         0.40337674349588    4.67427217502064   -0.32910958013242
C         0.21211273086533    2.88296272017485    1.18075103803680
H        -2.41995415469337    1.80754398910170    3.66035393045323
H        -2.08705495509922    1.01536679508071    5.20238167577437
H        -3.00990888347505    0.16083497034235    3.97859197828591
H        -0.67942504441665   -2.99748678628829    4.61038592252150
H        -0.72541867224173   -1.74178703761447    5.84400068284328
H        -2.10068052694992   -1.95155764278395    4.76282548084294
H         2.36599420480163   -1.94635301296055    4.65578965420423
H         1.45307373172105   -3.13087229806432    3.72408411117458
H         2.73064842798737   -2.18678738594920    2.94806012077462
H         3.08353829483180   -0.28253064823387    1.71017707942593
H         2.43088906174143    1.32811963440550    1.38146727361377
H         3.13950760216637    0.96425652093921    2.95629019949867
H        -0.23499175579767    3.03567571539467    4.54451633919262
H         0.11691023284755    6.24039769868169    1.73381613486026
H         0.31058784597704    2.18574447014692    0.36293427271997
C        -5.01857807251424    2.46828264845041    0.61902934818628
O        -5.34251734421634    1.20141668489785    0.06353288670375
C        -4.49232245995511    0.19212957656045    0.16260185245766
C        -3.25791152813919    0.22495260396450    0.81904096578738
N        -2.44978623004711   -0.82751507988692    0.88408268378780
C        -2.80596450702306   -1.98653295332439    0.28387661237762
C        -1.80895337452091   -3.00903453731804    0.35042149483392
N        -0.69156235570667   -2.70094546405402    0.92918057244546
C         0.34679584919905   -3.63983044233336    0.99643337159762
C         0.10802489513108   -4.94334239745428    1.43424188212137
C         1.14311667844312   -5.85731291053741    1.48496707789757
C         2.41332180464499   -5.47291530571036    1.07898014208864
Br        3.84822288799592   -6.74796903739459    1.12737443788066
C         2.66306733638687   -4.17975846318538    0.63924022169442
C         1.63271030293734   -3.26101099608072    0.60991642269734
C        -4.02920551395799   -2.11545806947530   -0.38231523865544
C        -4.87210683414716   -1.03107768711524   -0.43870713369181
Br       -6.55180382358860   -1.11976593650399   -1.31984551290983
H        -4.90314472153802    2.40000086349951    1.70219669562769
H        -5.86514409449506    3.10873964144109    0.38172699480013
H        -4.11315483158458    2.87312746310859    0.16334745086628
H        -2.90947367890048    1.12918695085733    1.29369759146077
H        -1.96589254443312   -3.97563152150812   -0.11352987850553
H        -0.88027024059319   -5.23096513837086    1.75724471960670
H         0.96529420476758   -6.86232025436655    1.83253155812502
H         3.65404794662382   -3.89876327995571    0.32063915674269
H         1.80017199362454   -2.25754204238933    0.24906641282894
H        -4.29614237144146   -3.04808121375548   -0.85234090303231
Cl        0.09199482820720   -0.18862469638090   -0.55116036208245
