78
 energy: -110.773714653937 gnorm: 0.000315554970 xtb: 6.4.1 (afa7bdf)
Ir        0.33304687432815    0.69983695763484    1.54867173209050
C        -1.65212321700499    2.76829704051358    3.74598143091104
C        -0.45573109420666    1.92806264358838    3.50816484470204
C        -0.43840089029345    0.47473047347643    3.63646351553181
C         0.91343080994750    0.04447050199217    3.56955486470561
C         1.45611272839852   -1.26005590921264    4.05555395173512
C         1.72329863689301    1.23605663981965    3.28196076585229
C         0.85893457710881    2.38431865037821    3.33033118536295
C         1.27086273394165    3.78803901775139    3.20777502279513
C         2.15373277345733    4.34834605585223    4.12780461478028
C         2.49999964008012    5.68209258876001    4.03896190071861
C         1.98988573020837    6.48843546572156    3.02278524005160
C         2.35366658863280    7.91056257448335    2.93244453589310
C         2.63034605284547    8.49541726001958    1.69823204683223
C         2.96455768684051    9.83446979470917    1.61295820905567
C         3.02082441682429   10.61271202947498    2.75786638685755
C         2.74723777528786   10.04153143223349    3.99008020492121
C         2.41979158621764    8.70085106625081    4.07816252789492
C         1.12390861614745    5.91636382772997    2.09210994990680
C         0.76303390057210    4.58791383241317    2.18689591577585
C         3.20799012842550    1.28550658960295    3.30626641144703
C        -1.59676033408758   -0.34121643472552    4.10255520116888
H        -1.86061453834817    2.77932960507593    4.81791873651962
H        -2.53203625061813    2.36375893577030    3.24990859931444
H        -1.48257048223261    3.79203123810995    3.42184820021378
H         1.58292436333413   -1.19828672519239    5.13700744267366
H         2.42325114184107   -1.47478939048205    3.61240439614776
H         0.77497667591621   -2.07726375550196    3.83986872871122
H         2.55306653547472    3.74222424288110    4.92664575832193
H         3.18919933317306    6.10227154198382    4.75608080702673
H         2.60447050865317    7.89155763877493    0.80268733021096
H         3.18209317532611   10.27392019624066    0.65011222527475
H         3.27693740166758   11.65979316407153    2.68992234704703
H         2.78723468715860   10.64499600461036    4.88529754410475
H         2.19151787362663    8.26770496926913    5.04126568438329
H         0.71817721552182    6.52432925488411    1.29711176860333
H         0.11199299005955    4.15575886004997    1.44110089909834
H         3.64502427413329    0.42246919405009    2.81140816901772
H         3.57143472447762    2.19286987444123    2.83089685607900
H         3.54260879725203    1.27900864726579    4.34534201491301
H        -2.53310510295638    0.02869161299463    3.69308246353615
H        -1.47835252025906   -1.38452858046358    3.82257888155838
H        -1.65776406924930   -0.28536136159878    5.19048721312382
C        -6.03203205423764    0.97888189855153   -1.75999584688921
O        -5.02331705655487    0.04371389149776   -1.40540996365274
C        -3.97279359652977    0.44279718881159   -0.69686168623619
C        -3.74788856949214    1.74754234863850   -0.23728065422872
C        -2.61092291234421    2.01917024020075    0.50161790826922
N        -1.72813309906581    1.08795135826991    0.81080000735757
C        -1.91072161399347   -0.16654410818315    0.34831124641791
C        -0.74615029647390   -0.95955306329529    0.70142919037445
N        -0.56933729167542   -2.15775366636251    0.54032906722541
C         0.54317564246113   -3.01527663548675    0.72637660132628
C         1.01354108511366   -3.48775859653949   -0.65741341460321
C         2.17153055386800   -4.46979271530908   -0.50657532083169
C         1.75745418189366   -5.66756020652014    0.34402027784898
C         1.27206706377381   -5.20214896243867    1.71387267586321
C         0.11156822234357   -4.22311524134418    1.56530874271621
C        -3.00688373144389   -0.53660528680889   -0.39685224788132
H        -6.49638439751980    1.41264261897788   -0.87166336986097
H        -6.77224053509051    0.40741732058003   -2.31541197530503
H        -5.62825609561057    1.76968084760866   -2.39629033906832
H        -4.43618860502056    2.54814119567842   -0.45015312301981
H        -2.41317174812664    3.01983540436221    0.85790509694477
H         1.50207405625633   -0.10951743276494    1.01331177823138
H         1.36659010024260   -2.47663052138995    1.21947955114378
H         1.32238644727729   -2.62232513755660   -1.24525835767529
H         0.18126031671957   -3.97154383038513   -1.16978669597677
H         2.48857506679151   -4.80699755586430   -1.49449606550842
H         3.01917708343555   -3.96523440076886   -0.03875198576468
H         0.95731494259470   -6.21270077980817   -0.16073192162305
H         2.60190061857546   -6.34890991601996    0.46018954671927
H         0.95023990776575   -6.06036656542317    2.30554842269303
H         2.09473469243443   -4.71840288788347    2.24400391937152
H        -0.72533477981527   -4.71506745533534    1.06886483424914
H        -0.22666797121273   -3.88834126122159    2.54656177394236
H        -3.12387053987967   -1.54447304495877   -0.75559849260960
Cl        0.82860545746293    1.90546069290742   -0.40231570476974
