68
 energy: -100.150958447777 gnorm: 0.000298142026 xtb: 6.4.1 (afa7bdf)
Ir       -0.26452219171243   -0.69585631815657    1.73304435566376
C        -1.96686026709537    1.30428498501569    3.95412398511773
C        -0.69028155084922    0.70744198704563    3.46572718845951
C        -0.19682452135457   -0.55738649731249    3.95242814536762
C        -0.86065805061286   -1.38111340060836    5.00295290853483
C         1.16304746190481   -0.70930645879678    3.50589014786487
C         2.10879847271977   -1.74925189878844    3.99815322201075
C         1.46161912543186    0.38220073386374    2.65002497321531
C         2.79354672882887    0.70106130936975    2.05967330848192
C         0.30406783158745    1.27165301802058    2.61697304079273
C         0.36577566778258    2.65196656481449    2.02038716274722
C        -0.79909273816793    3.01163538782571    1.09196832270397
C        -0.56466731369023    4.39091006978729    0.48142845114001
C        -0.42302193683124    5.44535171666991    1.57680590044018
C         0.71703527283911    5.08291993733159    2.52511334986479
C         0.49352980062867    3.70221325423987    3.13592941873291
H        -2.78064657481882    0.58296679611174    3.91557104360138
H        -2.24835481459825    2.18849140384760    3.39440317363595
H        -1.83126178512536    1.58937237086041    4.99828498823179
H        -0.49293103256338   -2.40282926615850    4.99083738531235
H        -0.64044728943387   -0.95433512396325    5.98224863283161
H        -1.93946813908450   -1.39057184220243    4.87556535374632
H         1.60410646605444   -2.69681321630422    4.16546695821259
H         2.92574175140297   -1.91141711556691    3.30155959468035
H         2.52877700536571   -1.41657255277740    4.94798671548670
H         3.47279029777553   -0.14094455496266    2.15250487290734
H         2.70025181594526    0.95944751427415    1.00644977783405
H         3.22776452113167    1.55399481604717    2.58152822290028
H         1.27419594437352    2.70224475388588    1.41276605463418
H        -1.74037780539873    3.03666117447592    1.64084267783039
H        -0.87218719281043    2.26264495999613    0.30179041129428
H        -1.39764385751020    4.64833545604615   -0.17586986603046
H         0.34265542665616    4.37342711884632   -0.12632165861730
H        -1.35682622063244    5.51488421251327    2.14005151813815
H        -0.23409078968835    6.42288174336298    1.12858618270945
H         0.79055027363212    5.82776560403063    3.32023075159684
H         1.66033707479867    5.09147905358742    1.97397621342312
H        -0.41427105868041    3.71719626707343    3.73949472313828
H         1.32852563874827    3.44588659477635    3.79081745812949
C         0.79758161638779   -7.39794127077560    2.77553795618707
O         2.01514360100729   -6.79255133589565    2.37623048783063
C         1.99287553086612   -5.53572208943503    1.89746026931572
C         0.86299224386382   -4.73360897653613    1.77470673898549
C         0.96670261302549   -3.43368992277101    1.27450045701799
N        -0.17996648177472   -2.63725670243630    1.14150738997214
C        -1.23339682327582   -3.11610610898255    0.55814874267724
C        -2.35413144519976   -2.23462115352886    0.42557286973489
C        -3.53360864697742   -2.55045942889446   -0.25096527646724
C        -4.52298898928660   -1.59155693703399   -0.35717276150512
C        -4.30435673431483   -0.34088414446102    0.21171031247811
C        -3.11147175002560   -0.09592253595946    0.86910744159814
N        -2.15668284835390   -1.01495467004403    0.98663412623917
C         2.19792420068312   -2.91626142102177    0.88663346013021
C         3.32715357380747   -3.71116367406709    0.98151847061920
C         3.22067976264530   -4.99096574673521    1.48241468351826
F         4.33039013270232   -5.75236249557438    1.58025323327107
H         0.10364717797032   -7.47644693577250    1.93510934412412
H         1.07167407143112   -8.39483334866597    3.11386432060411
H         0.33461482740931   -6.84903468523389    3.59894595318744
H        -0.10161222463920   -5.09848535919468    2.08843764691276
H        -1.25164743041635   -4.11466935289116    0.13804048396290
H        -3.64900754735811   -3.52911278715022   -0.68823266749398
H        -5.44331761741401   -1.80620557433859   -0.87672734466095
H        -5.04773700053531    0.43682497662128    0.14754041890717
H        -2.91204375630339    0.86783982568665    1.31152822758290
H         2.25189793519371   -1.92227188700602    0.47330807359633
H         4.29352788525619   -3.35120173891874    0.66752815456884
Cl        0.29310667656021   -0.14522007714272   -0.52542127965648
