80
 energy: -117.026009393942 gnorm: 0.000897854590 xtb: 6.4.1 (afa7bdf)
Ir       -0.95579283085620   -0.00428297333954    1.52262624603016
C        -2.01156974923494    1.92246293160080    4.33031105789503
C        -1.02137547526423    1.03704484789102    3.64648409069822
C        -1.18170828687998   -0.41108989002090    3.70184103115287
C        -2.29511384871425   -1.10904029948463    4.40862341638841
C         0.03395991946428   -1.00989995644019    3.27618480315497
C         0.43171384036186   -2.42865928228399    3.48773062838768
C         0.86778428444422    0.04045584335154    2.76050791190853
C         2.29772442834645   -0.13873586304744    2.37488931263592
C         0.24534880869374    1.32147752231417    3.08741120220305
C         1.04779304000186    2.59599337225971    3.00756120913690
C         1.18876112265624    3.13929440859086    1.57689222006947
C         2.21094379365118    4.27115013386122    1.54318738086137
C         1.81096790013668    5.39382292149329    2.49612680349245
C         1.62186378679189    4.85205231662084    3.91065102014146
C         0.58049019180411    3.73432991845722    3.91735201837156
H        -3.02764635975642    1.58786039856314    4.13200360231731
H        -1.92898115402865    2.96311305343186    4.04389480514446
H        -1.84699411532248    1.85080345400306    5.40649061794976
H        -2.33070172116961   -2.16051071879493    4.13800971339496
H        -2.13722556734320   -1.03997417397545    5.48538524417914
H        -3.25706430709794   -0.65555310947878    4.18239026693418
H        -0.41542738385790   -3.10303090831798    3.39948059653178
H         1.20824368553548   -2.73766392543310    2.79482984813229
H         0.82711194350382   -2.51911753374730    4.50029522095735
H         2.45891713308047   -1.11635831592118    1.92887825004957
H         2.61764310347447    0.62006737358717    1.66781192591744
H         2.92111122421386   -0.06316104736059    3.26709052580150
H         2.05604067051911    2.31673466714438    3.34238946248193
H         0.22455466596605    3.50966632106658    1.22911075350971
H         1.49299806477890    2.34782491854739    0.89306247533753
H         2.29059316527809    4.65972524411123    0.52590450965588
H         3.19315055466170    3.88736741385520    1.83031665215501
H         0.87918145224558    5.84883680500045    2.15129060397393
H         2.57590042985616    6.17313124674541    2.49491076570955
H         1.29928743695996    5.65695823113069    4.57411641768816
H         2.57498809351324    4.47275575116550    4.28672627001455
H        -0.35816113694754    4.15221971184614    3.55303710657974
H         0.43625619917472    3.37151559333933    4.93596069514931
C        -3.41388374959786    8.45414804559987   -1.32041565685659
O        -3.62072489929878    7.06396847563093   -1.08429359785434
C        -2.87782100401317    6.49767076479325   -0.13197081118417
O        -2.06214102056427    7.10378563920624    0.52870758385637
C        -3.16782130594915    5.05128408096757    0.03786021807330
C        -4.16132118902221    4.40084933455664   -0.68993245807093
C        -4.41199545858071    3.06187183357958   -0.47031240825297
C        -3.66879668052078    2.33516031848306    0.46731695849070
C        -3.99510734896923    0.91074036138384    0.64217165177264
C        -5.34651473974446    0.53917414177342    0.56696527488809
C        -5.70730886096651   -0.79321161955853    0.50853856221386
C        -4.69918675327770   -1.73997310265258    0.43780974368944
C        -3.38098363620007   -1.31544897704962    0.57886322982509
C        -2.27183764010954   -2.21004247910864    0.39710074739543
N        -1.07298528293398   -1.75602766666417    0.56096600885060
C         0.03767751639861   -2.55584888498661    0.26336434568144
C         0.03995274949299   -3.92880029024527    0.52712610751736
C         1.14868636222688   -4.68891052579723    0.20811482885803
C         2.25801226434685   -4.09850812763551   -0.38005569905802
C         2.25850680970909   -2.73608957842493   -0.64033515613439
C         1.16113200234327   -1.96132397683294   -0.31303854945882
N        -3.04247339293221   -0.01766137588655    0.78080472882832
C        -2.64994758228306    2.98377913629130    1.15575700347747
C        -2.41178682417053    4.32792991156415    0.95534253688432
H        -3.49064533546868    9.01110680612932   -0.38488056806778
H        -4.18824924758565    8.75915021613885   -2.01843330941402
H        -2.42337598086715    8.61803192176777   -1.74886903971465
H        -4.73272316156254    4.94997159027006   -1.42061190649036
H        -5.16968875954444    2.56966698338933   -1.06031956962228
H        -6.09926960254935    1.31027838908429    0.56732784966813
H        -6.74543895877903   -1.08311008158790    0.47261357116382
H        -4.91531012565949   -2.78530595548057    0.29079136965032
H        -2.45604691818039   -3.20976656409191    0.02043413369087
H        -0.80708158976265   -4.39098405374413    1.00993765965142
H         1.15004738903777   -5.74608206436231    0.42320135748031
H         3.11998643176975   -4.69770523187372   -0.62872222539743
H         3.11897189580078   -2.27279845042728   -1.09718634685173
H         1.14017458764081   -0.90412719759204   -0.52634121635590
H        -2.04680909809238    2.42936294640773    1.85276083080842
H        -1.63835204233062    4.84892153046802    1.49922983568252
Cl       -0.47884782189742    1.08221237417672   -0.54356730141536
