65
 energy: -105.374594404701 gnorm: 0.000392156044 xtb: 6.4.1 (afa7bdf)
Ir       -0.59290923603504   -1.31692110432904    1.16309494277192
C        -1.88685130769523    1.01584672867323    3.43747440983621
C        -0.75054957561880    0.25174832670027    2.85597093945528
C        -0.31455723719550   -1.02903023855170    3.35942570494728
C        -0.93260753791301   -1.72798656650819    4.52406434144814
C         0.97444066908898   -1.31343138538183    2.78594099683785
C         1.97227593780727   -2.30382729237090    3.27696995265203
C         1.25469432721660   -0.29003164200201    1.82803622762795
C         2.53689286530259   -0.10449612587246    1.09706601290590
C         0.18771493563007    0.68827556604748    1.88026022273367
C         0.27473115095621    2.01931803615727    1.21517796119685
H        -1.66858992709552    1.20649146401337    4.48859390319738
H        -2.81663875590632    0.45333709723171    3.39165939654321
H        -2.02926316184742    1.96482706302680    2.93203429364813
H        -2.01089616417367   -1.59751448554964    4.52687789345815
H        -0.70829044176562   -2.79043208615475    4.51393368173808
H        -0.53755904143420   -1.30326728195474    5.44762177999516
H         1.54115287756290   -2.96382890170057    4.02168005615136
H         2.38175946322158   -2.89884924846539    2.46392937465111
H         2.79569176333007   -1.75649463281400    3.73661482546586
H         2.35455233872936    0.26330203542909    0.09018115269644
H         3.09367795784313   -1.03484025897069    1.03649403236563
H         3.14271274154469    0.63457274419314    1.62280715903056
H        -0.60507781738579    2.62422945459573    1.40627463736793
H         0.38608113032702    1.90154856566473    0.13934456479027
H         1.15433940231335    2.54510686421578    1.58590396685998
C         0.76298888439830   -3.16671091823323   -3.91855781978940
O         1.21716727506857   -3.65863276310167   -2.66112355351210
C         0.28950577647677   -3.99692974284578   -1.77889071934526
O        -0.90384364974536   -3.98103098745075   -1.99988933596388
C         0.88821546316522   -4.50260605806335   -0.50810327881971
C         2.00608242634299   -5.31459047471142   -0.56475942198207
C         2.52944390209386   -5.90975048732197    0.58901877399972
O         3.61400122376105   -6.68779594700614    0.40935182154190
C         4.20413550097194   -7.31901389578811    1.53282821466691
C         1.89819008278165   -5.67681308227338    1.81093426184597
C         0.80577356606485   -4.83030130453321    1.87706946674287
C         0.29756471643753   -4.22394990041500    0.73676452744853
N        -0.79225009596180   -3.33341987107853    0.80148359483978
C        -1.94191007428820   -3.75211310330295    0.39215948291467
C        -2.98251446614780   -2.79399539506600    0.19198904940763
C        -4.22942882968684   -3.12719868812947   -0.33359380725357
C        -5.12768343615354   -2.13424349250599   -0.66342684944295
C        -4.74039039887829   -0.80233193542973   -0.49428124115124
O        -5.45635778015469    0.27721377721164   -0.79145963351411
C        -6.76518380800848    0.12787356466085   -1.32295069186578
C        -3.46297317317680   -0.55860526538287    0.05298584370252
Br       -2.97682562015184    1.24110852969017    0.20545071240166
N        -2.62105193602267   -1.50442317873704    0.42733165553362
H         0.25019365476203   -2.21357966593277   -3.77341729687519
H         1.65195703521111   -3.03404748501963   -4.52833639807609
H         0.07405090434886   -3.87826940666681   -4.37768438374777
H         2.47709783767647   -5.52168968044811   -1.51144414214559
H         5.06128489903846   -7.86214860400024    1.14053900621536
H         3.51154929738708   -8.02285657487261    2.00116769438248
H         4.54355548391770   -6.58362701071110    2.26639297218564
H         2.24823180033600   -6.14771580249857    2.71461359075100
H         0.31563286808963   -4.66070396389397    2.82188300062545
H        -2.11124647158713   -4.79152336976773    0.13764037137613
H        -4.47227965106794   -4.16429505839714   -0.49528773432394
H        -6.09418922138272   -2.38314839774282   -1.06961564612858
H        -6.74142189306509   -0.39743155349223   -2.28008619676391
H        -7.12969652702514    1.14187541943636   -1.47047177190786
H        -7.41354732088473   -0.39849235413709   -0.61934182538942
Cl       -0.06681260174450   -1.02814556734431   -1.14045872296845
