88
 energy: -136.075789984233 gnorm: 0.000194929051 xtb: 6.4.1 (afa7bdf)
Ir        0.12527111216597   -0.82515754613394    1.59546184965806
C        -1.20340996876582    0.75572535816175    4.26253396634974
C         0.01100047144069    0.37886724536790    3.48667573079222
C         0.82609928746658   -0.77433112231020    3.71818519610894
C         1.98303907369194   -0.68318276633133    2.86155211440378
C         3.21008007018398   -1.52257745014562    2.97434418940408
C         1.87398165276755    0.51676705465581    2.09694433211063
C         0.62741491126621    1.15738866069035    2.44531095167700
C         0.23239669553631    2.50612811386088    2.01197426552849
C         0.03762319859138    3.51648858511031    2.95183543346882
C        -0.26949222506371    4.79916141584774    2.54295180838928
C        -0.39075775583270    5.11118470388706    1.18948823603304
C        -0.68572126438790    6.48557660002782    0.75696741341602
C        -0.02885117070327    7.03446336939433   -0.34289972656715
C        -0.29137149757083    8.33092202142108   -0.74543419303941
C        -1.22012864467939    9.09825259051504   -0.06118610088603
C        -1.88202176120444    8.56130186239864    1.03105208255058
C        -1.61489959470675    7.26759493685770    1.44005703409464
C        -0.20957068533918    4.09258455721254    0.25471318184666
C         0.09823461107811    2.80887253126168    0.65786815530285
C         2.93853246083207    1.08633532800184    1.22880385035056
C         0.63581020572117   -1.77929550494665    4.80112624913822
H        -0.89649826374874    1.15224961014781    5.23109073901288
H        -1.84022596364698   -0.10618320847481    4.44755193462959
H        -1.77563716102912    1.52073600371972    3.74475214256446
H         3.85344124141912   -1.09904191910089    3.74665449441643
H         3.76267443221355   -1.53420772537909    2.03984178934367
H         2.97030349419291   -2.54389645723465    3.25618408643012
H         0.16035030508591    3.30398788676963    4.00245993582307
H        -0.38829442687288    5.57834859511049    3.28059331081005
H         0.70947031804331    6.44959143309531   -0.87187165349882
H         0.23179327361474    8.74592631896939   -1.59498887687319
H        -1.42593102980208   10.11052178613478   -0.37701815827449
H        -2.60944315492651    9.15479943580455    1.56572671219804
H        -2.14556132667007    6.85449462527055    2.28541009060856
H        -0.32143675080232    4.30704465652698   -0.79746552513794
H         0.22443632115405    2.02712304044740   -0.07644636558442
H         3.16927888279710    0.42009537047811    0.39973901961026
H         2.62966024764460    2.04604059601668    0.82391166740619
H         3.84607623040735    1.22019215088047    1.81708986122711
H        -0.41103463173004   -1.86869451347626    5.07695725748094
H         1.01223145308209   -2.75395991141774    4.49905823376863
H         1.19448426370255   -1.46271687382214    5.68253359950966
C        -7.99197693697323   -0.39710937550595   -0.52241032233154
O        -6.61964043196691   -0.31695289957670   -0.13633065362514
C        -5.92412014365958   -1.44514537711666   -0.13423225384120
O        -6.36661781530253   -2.53028554872760   -0.42820143283921
C        -4.50472885871804   -1.22838093548155    0.29168721624984
C        -3.98981771029599    0.04154058904955    0.56389533772091
C        -2.67057336932446    0.15640069341885    0.96126644173753
N        -1.87105624791350   -0.89738547104484    1.10542121066632
C        -2.34996952866975   -2.13399994352560    0.81956435556632
C        -1.37062521663513   -3.17615240391393    0.94455141712748
N        -0.17310565044448   -2.80876949835816    1.26672077606545
C         0.85880739684679   -3.74874431178096    1.38747469045738
C         2.05977781377533   -3.51576619341437    0.71787556712670
C         3.07913985075139   -4.44364910944369    0.81631353825965
C         2.92400333745007   -5.57682576405355    1.59549689945997
C         1.73178146387136   -5.81532675348506    2.28244311204886
C         1.57869238447287   -7.01184544002370    3.12135405875734
C         2.11412003498523   -8.23290219396894    2.72277764851369
C         1.99285826790555   -9.36409396958523    3.50867078378222
C         1.33178495384191   -9.29514383052577    4.73183538602682
O         1.16383178711568  -10.33476112444133    5.59083871750924
C         1.71446326148892  -11.59119004029609    5.25569524119974
C         0.78751029364148   -8.07338828417423    5.13758958462998
C         0.90562041898419   -6.95572536546773    4.34318909209874
C         0.69456224238417   -4.89475867678272    2.16124902628153
C        -3.66752746963730   -2.32851627776671    0.41127668492899
H        -8.06697154465866   -0.58463082687285   -1.59468471801793
H        -8.43054522331597    0.56411303999517   -0.26997621517901
H        -8.48802856769234   -1.20694889861626    0.01458387549825
H        -4.60962827018045    0.91708248262725    0.46772696679192
H        -2.23825894141844    1.12559691059575    1.16634415182282
H        -1.61956844388092   -4.20917024571022    0.73096008143369
H         2.15750507671610   -2.63410134038770    0.10450715389564
H         4.00515989049030   -4.27837137773840    0.28793656077531
H         3.73967045042050   -6.27584859048178    1.69150265666729
H         2.61623988562227   -8.31383378905155    1.77033825788841
H         2.41494626358446  -10.29248766146556    3.15820298154961
H         2.80042415701920  -11.53171952263628    5.13681512310852
H         1.26543398583623  -11.99281646293444    4.34237318728650
H         1.47822008942529  -12.24584095453175    6.09249303991613
H         0.27876665095801   -8.03164838648576    6.08755863375655
H         0.49383735931749   -6.02048874127938    4.68997972642930
H        -0.23804547428772   -5.05927548989637    2.67886224582830
H        -4.03997276979964   -3.31552825407385    0.18536904887921
Cl        0.46841536238847   -0.61007482880001   -0.75361019805519
