70
 energy: -112.525952923862 gnorm: 0.000359407815 xtb: 6.4.1 (afa7bdf)
Ir       -0.77644148571204   -0.89345669625824    0.84055220061040
C        -1.80087466708725    1.21587833902263    3.39532366513257
C        -0.75250415499720    0.39962221020039    2.72607290979561
C        -0.48539250568695   -0.97776791610082    3.04305862868914
C        -1.19626811136229   -1.77143264673786    4.08632668500318
C         0.76489779472687   -1.34033980915458    2.42497464170841
C         1.55814018482219   -2.55907686623287    2.74266693597856
C         1.20037406650568   -0.23304460296550    1.64248948286276
C         2.49894669004171   -0.11185165708580    0.92678971257546
C         0.25550271510718    0.85117296347882    1.82554601296118
C         0.52892776615596    2.25876247900469    1.41667682694220
H        -1.48546274099811    1.40121082593472    4.42288697898546
H        -2.75158778839101    0.68975757416994    3.43060710779745
H        -1.94000812932306    2.17092111998530    2.89984285659469
H        -2.25733362788310   -1.53893973117879    4.10315538615959
H        -1.06744669622724   -2.83780542206543    3.92372366222394
H        -0.78183687195800   -1.52668703333165    5.06514778517650
H         0.92226079257030   -3.42429945022710    2.90911765966510
H         2.26571863663124   -2.78939879944008    1.95194162283127
H         2.12094658226590   -2.37159388716618    3.65820677433853
H         2.38733736503448    0.48484913102515    0.02482348389871
H         2.89010960116374   -1.08783064431288    0.65335284600724
H         3.22167063513987    0.38406934903870    1.57554269290486
H        -0.33527933466045    2.89526371187708    1.57577616023540
H         0.81321454989633    2.31324222466480    0.36890350879368
H         1.35849981622078    2.64419645575065    2.01031535611527
C        -2.02228626716430    7.98195954066185    0.80489818416971
O        -2.37628399790112    6.60212260190343    0.83778810198961
C        -1.80083915518513    5.80969353521578   -0.07021725759952
O        -1.00576479885983    6.20551432956798   -0.89403500927421
C        -2.23974751700123    4.39524963612002    0.04960732090310
C        -3.22094260146750    4.00441856349662    0.95987932503259
C        -3.62439937615896    2.68476547605931    1.01280166470521
C        -3.03385021721174    1.72807462061309    0.18414230462163
C        -3.58404575657946    0.36217911974182    0.11866987374436
C        -4.95325204174656    0.25529841292992   -0.14469321740296
C        -5.52987559186298   -0.97994129328969   -0.38081000623164
C        -4.71149911651053   -2.09503960256310   -0.36887499623471
C        -3.36408820400289   -1.93479286210498   -0.05444594751351
C        -2.45160558303933   -3.04002450462281   -0.02673530247538
N        -1.23005576688839   -2.80837296723547    0.32294606189337
C        -0.30573907067446   -3.86267184341157    0.34878157836458
C        -0.64796539634477   -5.09379329678345    0.91390610339206
C         0.26569206842820   -6.13279622973727    0.91665244346273
C         1.51804017074123   -5.96218247038533    0.35260092295789
C         1.86920201802784   -4.72963118316421   -0.19531159622459
C         3.22432604694577   -4.56742108389604   -0.78751536969845
O         3.93313310747320   -5.49207775142709   -1.11200315603518
O         3.59175833919751   -3.29537071843008   -0.91194937851814
C         0.96312476175810   -3.67640569035884   -0.19268165311323
N        -2.80868687238867   -0.72468483775365    0.22098480432026
C        -2.04393583558554    2.11844529434801   -0.71510840054558
C        -1.65880860648717    3.44388785510687   -0.78557083394831
H        -0.94158856516494    8.09702326547674    0.90623782939124
H        -2.33624772464273    8.42951458248634   -0.13980843999164
H        -2.54072623863363    8.44371360412720    1.64042923680351
H        -3.67016202643297    4.74042978783213    1.60685301557377
H        -4.39637701051006    2.39108491135293    1.70756436386822
H        -5.54193940413323    1.15732962522692   -0.18946685850844
H        -6.58366235374618   -1.06499454083661   -0.59275549153906
H        -5.09429448342121   -3.07803338424002   -0.58963501596175
H        -2.78000851381037   -4.02428986725123   -0.34240770127102
H        -1.61752078295668   -5.22320109500452    1.37048724228405
H        -0.00259168401364   -7.07991109262553    1.35737183382601
H         2.23893312754151   -6.76444402206790    0.33449673305776
H         4.46598998306243   -3.21537829241526   -1.33403925803053
H         1.21946801876537   -2.73050791399925   -0.64373522176995
H        -1.60156007717506    1.39186358870397   -1.37639330860550
H        -0.90940084362538    3.76504478397883   -1.49238000971611
Cl       -0.14800524266204   -0.61248181319209   -1.45061109812124
