72
 energy: -112.806665252886 gnorm: 0.000529397088 xtb: 6.4.1 (afa7bdf)
Ir       -0.69378952566632   -0.62655701636220    1.45075379988372
C        -1.96403909150241    1.68851779497917    3.75669161658960
C        -0.88307744617374    0.78760746002164    3.26267908081767
C        -0.80026306298631   -0.59872333163078    3.67444892174466
C        -1.76230725089008   -1.26297264158374    4.59823173835773
C         0.49149236219823   -1.09585501751066    3.31067391907503
C         1.08648340616991   -2.37292503868347    3.78955492156010
C         1.14483052276610   -0.08130528753679    2.54251316369239
C         2.56390190481099   -0.11838968337871    2.08372987393602
C         0.30883271545832    1.11289536859877    2.56058938299335
C         0.83294038129665    2.46310654869564    2.15564812652964
C        -0.05522143499289    3.27346035737643    1.20594096751587
C         0.65311884631340    4.57027451738741    0.82229862786849
C         0.96767120152468    5.39648767720964    2.06692950429781
C         1.82828114620139    4.59211050287419    3.03741686849724
C         1.13481576865531    3.28758148077460    3.42054701338999
H        -2.94830175674230    1.26229977082151    3.57465989350975
H        -1.91986112955748    2.67115227866522    3.30302144521033
H        -1.84552858580227    1.79886475385896    4.83545982339125
H        -1.69406758382236   -2.34453143273304    4.52836768532160
H        -1.52601712605314   -0.97494506430533    5.62340869854516
H        -2.78348587305171   -0.95666252058340    4.38947200703391
H         0.33936566538629   -3.15683286871440    3.87768471815886
H         1.88688792090351   -2.71549023896352    3.14054678024733
H         1.50661449314761   -2.19884079312885    4.78112480239432
H         2.93270636841430   -1.13860547321659    2.03583161166236
H         2.66758821899879    0.33531092455579    1.10112422343996
H         3.18604000039759    0.43862690962188    2.78446180551313
H         1.78026136674688    2.30131555571772    1.63352173493983
H        -1.00295608963845    3.52768021882416    1.68074836896807
H        -0.25500953481702    2.68565423154574    0.30923051250098
H         0.02174361973537    5.14616712934863    0.14295551886155
H         1.58083313377309    4.33993736282477    0.29397221272682
H         0.03536297267454    5.68455065902908    2.55876433771745
H         1.48791043196860    6.31323681791025    1.78294453921679
H         2.02209823072565    5.17968166682525    3.93709307633294
H         2.79121215075878    4.37378828328699    2.57004647982412
H         0.20721020502723    3.51388493292677    3.94624805371159
H         1.77264271669850    2.71263865629017    4.09428389607135
O         3.87507824856495   -6.79789865566452    0.96760878217103
N         3.93383485619991   -5.66846635528198    0.51729949039478
O         4.93301785383924   -5.18596671841168    0.01707149975213
C         2.75166976755567   -4.85625668142056    0.57962515213982
C         1.59829203649473   -5.37283010320346    1.16427243807868
C         0.45807067778643   -4.59850644213002    1.21384400743072
C         0.47053628346347   -3.30452327961215    0.68272942283021
N        -0.68102701538812   -2.51049296448551    0.71857122511811
C        -1.81352157381430   -2.99860831348517    0.31544255674316
C        -2.94047248438609   -2.12234231727405    0.31093195852335
C        -4.21846889198239   -2.52646112991100   -0.12780137435702
C        -5.23091486310391   -1.61148371967299   -0.16501336310565
C        -4.95447136094441   -0.26384639456600    0.15925290513313
C        -5.92863001446164    0.74523723697980    0.05701165694492
C        -5.59761187774653    2.05272109857516    0.31170634170560
Cl       -6.78743143817057    3.29931587545421    0.16549505889032
C        -4.28184994127526    2.40287723290671    0.66789095025253
C        -3.32744848935023    1.43409011189216    0.80333788199568
C        -3.63221929881653    0.07791976420368    0.57365438126953
N        -2.67417220954722   -0.86765886147775    0.71106820681304
C         1.63572993372392   -2.79105859847712    0.10766683198431
C         2.77419525755527   -3.56745803141039    0.05063521962394
H         1.61389107327301   -6.37391050943522    1.56673067021408
H        -0.43676633154992   -4.98360547405482    1.67716020919320
H        -1.89027739128183   -4.00585829904110   -0.07773696803736
H        -4.37245017986839   -3.55295254878388   -0.41776756340507
H        -6.22860450465511   -1.89070409358363   -0.46536688169717
H        -6.92943031789080    0.48087930873152   -0.24488760585984
H        -4.03854306865470    3.44136880899746    0.82235699296968
H        -2.30641945257706    1.69199054531886    1.03331008686002
H         1.61948551892072   -1.79788962006682   -0.31347795768102
H         3.68223627973027   -3.19584934481491   -0.39866438078568
Cl       -0.14224034071281    0.14408302162970   -0.73301258414674
