71
 energy: -95.811451748406 gnorm: 0.000702310886 xtb: 6.4.1 (afa7bdf)
Ir       -0.61823054039060   -1.16217385804734    1.54124752370551
C        -2.11303812130861    0.71929311424129    4.00054950590816
C        -0.89062892052910    0.10104075773535    3.41019636504731
C        -0.44711777511126   -1.22348026224737    3.76465190666619
C        -1.10694472717216   -2.10423963499043    4.77202286328768
C         0.88086798338569   -1.40368030032431    3.23960537954548
C         1.82134440648745   -2.49359179444530    3.62944866546720
C         1.19860955032512   -0.25753307259778    2.46354778225472
C         2.51982219871476    0.03898687201525    1.83630685704055
C         0.09262576787372    0.68664780958810    2.56333055961442
C         0.20853977065347    2.11079821223454    2.08958555713170
C        -0.96374469219941    2.61340946446549    1.24104223925672
C        -0.66986055934763    4.02600478882652    0.74299818291039
C        -0.43348349441915    4.97035476715111    1.91926599930548
C         0.71397800401330    4.46499771862367    2.79000442478454
C         0.43217429658987    3.04932120905870    3.28602175417319
H        -2.96653598500617    0.04753168316435    3.93364252986454
H        -2.36496933119550    1.66131527972274    3.52737060138483
H        -1.92503935764474    0.90838256218275    5.05830764653327
H        -0.87401831231285   -3.15070660423675    4.59578052275769
H        -0.74882473292197   -1.84111864496890    5.76809365810704
H        -2.18565770019252   -1.98014705447158    4.75612478796176
H         1.28940640284176   -3.38843739052893    3.94044976056961
H         2.51076133415206   -2.73926488430769    2.82666034696451
H         2.41079591825133   -2.14722418334501    4.48017106593763
H         3.15352136904462   -0.84283255044118    1.81813869210916
H         2.39322568972238    0.39491286928886    0.81533858647199
H         3.02897701615023    0.81600651987230    2.40648965371442
H         1.09723039408751    2.16803766523896    1.45392348355199
H        -1.88339907529669    2.64084515151526    1.82578627218449
H        -1.10698193997945    1.94139584410568    0.39342918862157
H        -1.50601921873300    4.38588886430161    0.14020050259359
H         0.21592893358525    4.01196607279842    0.10436494727293
H        -1.34316873458877    5.03872588073169    2.52069817864811
H        -0.20492773763499    5.97251166634841    1.55074464924643
H         0.85542933414055    5.13144026289331    3.64342363519538
H         1.63812725755539    4.47133131345537    2.20720868629045
H        -0.45320109858326    3.05938939101407    3.92239750296894
H         1.27214932463696    2.69195487946359    3.88499581986204
C         4.02213388038387   -2.79898455903218   -1.51675815528179
C         3.91908175119600   -3.92156711717739   -0.83003476604515
C         2.72898721169691   -4.39164295077048   -0.04726168402858
C         1.53866431750467   -3.43869808472601   -0.07736334290604
C         0.37766332099103   -3.98154597483330    0.76568717800009
N        -0.72209529185045   -3.05003637317625    0.76979732324044
C        -1.79693927354743   -3.34443693676943    0.12717664250198
C        -2.85147155342988   -2.36582425083970    0.11580503055999
C        -4.04286655281721   -2.51332265211171   -0.57142512227998
C        -4.98940578439398   -1.47989045528712   -0.54779024664888
O        -6.11159762162134   -1.67542403059511   -1.23084235027262
C        -7.10287530576858   -0.65770777814219   -1.25987468203624
C        -4.66746099411660   -0.33172626686965    0.19215631226372
C        -3.45692739150652   -0.26803303483497    0.84887271958783
N        -2.56125856733500   -1.25077893040085    0.83317762586743
H         3.22504853284606   -2.07921272603488   -1.58397997097773
H         4.92422638268540   -2.55167209200246   -2.05086176699097
H         4.75687603968187   -4.60796217249774   -0.80165406703840
H         2.43026837942358   -5.36670790803594   -0.44409916237735
H         3.04726272035144   -4.55950677449373    0.98647799932547
H         1.19806892526995   -3.30467576827586   -1.10427842777049
H         1.83232279776931   -2.46006730132400    0.30270595534810
H         0.05293089748545   -4.94611978242451    0.36262653151026
H         0.71417947872041   -4.12239023903048    1.79413645148965
H        -1.91622161430624   -4.28538658737757   -0.39959530210368
H        -4.24792462442618   -3.40534288640517   -1.13935026132304
H        -6.70924547903443    0.26007289436090   -1.70174301843089
H        -7.48937388551674   -0.45811856783861   -0.25828137672605
H        -7.90051515374427   -1.05036710351715   -1.88642076039858
H        -5.34097757951559    0.50590511549971    0.25722242629889
H        -3.19562421525033    0.61482702927119    1.41098636254547
Cl       -0.12900564560904   -0.44038511945346   -0.68655137999184
