64
 energy: -102.067985026554 gnorm: 0.000445835648 xtb: 6.4.1 (afa7bdf)
Ir       -1.09769555482790   -1.61281191522502    1.36956214347398
C        -2.28356133926711    0.84858864055399    3.44676591763352
C        -1.19593257580517   -0.08363657710056    3.03327937771854
C        -0.99180120747441   -1.40447594689940    3.58362547132076
C        -1.81607434299108   -2.01478913763133    4.66528920460340
C         0.29431291443334   -1.87297763974527    3.14303593777999
C         0.99053663358481   -3.08375892471145    3.65885251255822
C         0.82310850546641   -0.91154936393210    2.23506399886058
C         2.19346874523982   -0.89131265797759    1.64856825697591
C        -0.09594524580351    0.21399357493144    2.18751541707827
C         0.20967778698141    1.51091160631215    1.52157647142386
H        -1.99804146973914    1.32122662998494    4.38743698107584
H        -3.21984145961899    0.32121702216997    3.61046960282611
H        -2.43267635620227    1.63422647207296    2.71123946766384
H        -2.87115299269535   -1.79275241088035    4.53092834352369
H        -1.68274889778168   -3.09185496402164    4.70218490994769
H        -1.50438492894488   -1.60266438705316    5.62579281107532
H         0.28975349141391   -3.88384005017640    3.88181536292328
H         1.72939938190807   -3.45341842744264    2.95320119244223
H         1.50691398836653   -2.82140531699084    4.58293600857399
H         2.16749984007268   -0.52788031840240    0.62377346391239
H         2.64615627852981   -1.87834736701425    1.66368637943810
H         2.82184663263955   -0.21404089510757    2.22779149160984
H        -0.66067986031055    2.15903147515028    1.48813798150797
H         0.56036193654686    1.34621000457174    0.50500886361061
H         1.00127447460028    2.01838957661926    2.07338656173183
C         3.19439179647804   -8.37637979234148   -0.31341362622575
S         3.43959675459295   -7.21679477817353    1.05411098980222
O         3.36333012265035   -7.93873092524901    2.30296407218935
O         4.63675187784777   -6.44630275014934    0.81207553374800
C         2.02246096228442   -6.11109070593807    0.95134535897631
C         0.81569762000690   -6.50385833039985    1.50040124851691
C        -0.27753866219655   -5.66007148334561    1.41644961208659
C        -0.14359836681089   -4.41737187099398    0.79446065978830
N        -1.22869424392987   -3.53244191127808    0.73325545290211
C        -2.36429527070184   -3.91599741846428    0.23562253110093
C        -3.40939956208833   -2.94658804076565    0.19892873340218
C        -4.66856701408485   -3.15154503385034   -0.37707462678335
C        -5.57480178139490   -2.11952084105167   -0.40416563032170
C        -5.21311306380610   -0.87265416186715    0.13748015422025
C        -6.12715390530970    0.23661986970524    0.11603557472510
C        -5.99135779233976    1.55395644696929    0.50907206889882
C        -7.22328171577662    2.17686262695427    0.24039808041757
C        -8.02533479681162    1.20644512873053   -0.29415878927584
O        -7.37713339502613    0.04339247817115   -0.37396930769248
C        -3.93735201715165   -0.75075962731087    0.70251818762269
N        -3.07030544854387   -1.74806739617673    0.74519940992338
C         1.08021774226768   -4.03067130256539    0.24639940207182
C         2.16201034173922   -4.88846867546874    0.31917856848155
H         2.26284482332863   -8.90101787076048   -0.14722371701432
H         3.17709324762753   -7.80741717365494   -1.23369714251123
H         4.02693338119397   -9.06929475457718   -0.30914841724002
H         0.75200728147940   -7.45488104646582    2.00425251984918
H        -1.22336069548751   -5.94509476249011    1.85007608969708
H        -2.49926667170189   -4.90851144652177   -0.17807867782310
H        -4.90533850822159   -4.11348548776956   -0.80172127464834
H        -6.55215178223889   -2.24572282253616   -0.84147985501055
H        -5.12374900387737    2.01977361407856    0.92691038989476
H        -7.48290022446616    3.19998967568994    0.41686867125703
H        -9.03979107003248    1.23137222581001   -0.64095606935798
H        -3.62173168276715    0.18748827639710    1.13062963417659
H         1.15598039999344   -3.07446310351611   -0.24779199583277
H         3.12340802151614   -4.62333649962292   -0.09087876096792
Cl       -0.64468607656443   -1.01636803127237   -0.89876718432102
