58
 energy: -98.277489220977 gnorm: 0.000304426002 xtb: 6.4.1 (afa7bdf)
Ir       -0.20257261256068   -0.85429413262664    1.66357321571864
C        -1.97915246031686    0.64534238451300    4.13295278537456
C        -0.65735152471060    0.20369448377934    3.60866276733557
C        -0.03309601544929   -1.05276457897639    3.88995700981942
C        -0.56807417460746   -2.10137372977741    4.80235826218257
C         1.30331532109665   -1.01964708560356    3.34704023999361
C         2.37844553596452   -2.00581818729948    3.65068393593044
C         1.48376560733768    0.22617004232909    2.68658222156479
C         2.77115517497326    0.74358202686625    2.15038798006365
C         0.24831940739246    0.97843107958451    2.80977006150232
C         0.09850261078033    2.40164106440290    2.46330511558249
C        -0.19691204043594    3.32486761064647    3.46473671257423
C        -0.29161430376665    4.66383329798997    3.13545132311009
F        -0.57285231800709    5.55127367203751    4.11150791001042
C        -0.10793322601957    5.13047166109690    1.84595386498021
C         0.18104714789871    4.18798063472914    0.87433104900353
F         0.36330784228272    4.60529011329041   -0.39487875924836
C         0.28715847678018    2.83895509295845    1.15392694218434
H        -2.32560948721932    1.54159376046757    3.62655510698478
H        -1.88077831553856    0.86662845358276    5.19620939316623
H        -2.72743407601138   -0.13712267439399    4.03109669864527
H        -0.18492277988771   -3.08346610097818    4.53833326085175
H        -0.25017713467429   -1.87964158631766    5.82180947044823
H        -1.65382126591872   -2.12255800630144    4.78481526958782
H         2.81365543789569   -1.75930699428329    4.61975676602195
H         1.98824851159900   -3.01838579297016    3.70526076461507
H         3.16657923251315   -1.96882380879406    2.90535565160662
H         3.24003468370880    0.02329720574670    1.48379987373134
H         2.62313146951798    1.67277995250069    1.60816219015892
H         3.45284372531913    0.92665661766093    2.98184097743829
H        -0.32653606235563    3.01884989973300    4.48966099095295
H        -0.18318225637940    6.17871510687728    1.60975639446348
H         0.49607375368207    2.13929972812304    0.35924252707691
F         3.46194828232179   -6.60580173103791    1.57435774179862
C         2.50798076095889   -5.66453192445945    1.43827175173249
C         1.21373071053467   -5.95916475661754    1.83535713261125
C         0.23390591115545   -4.99605886221239    1.68440949629088
C         0.56145371985240   -3.74488743916223    1.16021320595909
N        -0.42201215622675   -2.75734655119201    0.99465907794406
C        -1.52242397880804   -3.03789643491389    0.37306386461967
C        -2.46406305688791   -1.96715902789172    0.21690140391245
C        -3.66552225087832   -2.06025119806153   -0.48560190649783
C        -4.46019634637293   -0.93435885589280   -0.60370628650554
C        -4.02666185809445    0.25473019575092   -0.02745401386309
C        -2.82243895408242    0.27641505950041    0.65608654117972
N        -2.06219892924316   -0.80580826209754    0.79070650969191
C         1.87502475471934   -3.46341688075558    0.78395185583461
C         2.85301463233897   -4.43002500909689    0.91063409860320
H         0.98703311890179   -6.92945724841575    2.24712004021993
H        -0.77828381328516   -5.20229975917738    1.99579201552279
H        -1.70470168469602   -4.01709471798421   -0.05380509315692
H        -3.95206918482673   -3.00002298801901   -0.92981324607419
H        -5.39501628890162   -0.97576782044821   -1.14026365381593
H        -4.61211435880304    1.15628117550299   -0.10392206021138
H        -2.45463898781650    1.18782288155686    1.10399757634747
H         2.10353635511773   -2.49845540199090    0.35883792766945
H         3.87022062982431   -4.24342270091926    0.60653023585186
Cl        0.58315208827820   -0.32957395252042   -0.52432518902597
