82
 energy: -128.409354050819 gnorm: 0.000698051144 xtb: 6.4.1 (afa7bdf)
Ir        0.05678227696919   -1.08649924641882    1.83982111304640
C        -1.19288292770870    0.33741133926502    4.64380750752453
C        -0.00570395931516   -0.04210600826665    3.82736408661403
C         0.73820509917725   -1.25340050053378    3.98721916624626
C         1.89183662322684   -1.18810184787247    3.12429825339410
C         3.04754011070360   -2.13340199534999    3.12599565362265
C         1.88362820647513    0.08623611355488    2.47595909005657
C         0.68090474141899    0.77896999419826    2.86425349364283
C         0.38080610269260    2.17876957471049    2.53212426072760
C         0.19013271442771    3.11769194242148    3.54533406810869
C        -0.03241129232886    4.44451281330187    3.23466865215834
C        -0.07088211834187    4.87342240699131    1.90864314648621
C        -0.28502644072972    6.29111755437182    1.58171372832770
C         0.45866941167571    6.90300411576377    0.57452522813872
C         0.26633116319407    8.23806854763984    0.27027572339572
C        -0.67613874436484    8.98172473836249    0.96201431596057
C        -1.42314885593512    8.38234969696530    1.96302947419819
C        -1.22745998473155    7.04908063633151    2.27369676118016
C         0.11034125656932    3.92917558017606    0.89905255945389
C         0.33325048487296    2.60141086904882    1.20401635422028
C         2.99035827467891    0.65444248164354    1.66240962731942
C         0.47573248107612   -2.25940288152398    5.05502016819610
H        -0.86144850702911    0.61153913732814    5.64613729201174
H        -1.88283360849460   -0.49710690726486    4.74356324621366
H        -1.71530906088861    1.18571552587527    4.21148700152284
H         3.67250222001205   -1.93862319439019    3.99855257075479
H         3.64820862050721   -2.00001969197794    2.23109403580790
H         2.71485758342607   -3.16762329495423    3.16110293126481
H         0.25168691697379    2.81385369865188    4.57862546739874
H        -0.15029224027807    5.16482649835601    4.03016769145831
H         1.20751921816392    6.33533824497703    0.04146078221936
H         0.85487558760292    8.70202523042140   -0.50798950280093
H        -0.82698649737141   10.02404756694032    0.72225807842958
H        -2.16138853296029    8.95747134286514    2.50277417853527
H        -1.82434045579460    6.58597567914596    3.04595863805636
H         0.06255260567611    4.23774287258011   -0.13444754314975
H         0.45703409242819    1.87836699308707    0.41151449689126
H         3.03372934512499    0.18544205189823    0.67988348382659
H         2.84527733804401    1.72250831954345    1.52175232629020
H         3.94136913075401    0.47879993794433    2.16207774950643
H        -0.54076004515780   -2.64345443889283    5.00475231514641
H         1.17916397274524   -3.08288440794739    4.99536977587860
H         0.59553335046756   -1.77756380878372    6.02585862484074
C        -7.53073036783109    0.82573138962970   -1.20483098093014
O        -6.24979223218698    0.64319625584061   -0.60149949779369
C        -5.65422181050638   -0.52595434772957   -0.79572280576419
O        -6.11906235198613   -1.43489152990431   -1.44247934783290
C        -4.32585346476589   -0.60194682525698   -0.11178354303618
C        -3.77989807930201    0.47750445377773    0.59051475321253
C        -2.54939487310924    0.32613089422930    1.19821682895277
N        -1.86050986490123   -0.81406672899614    1.15973551695504
C        -2.37316182737460   -1.86481086073284    0.46951032694161
C        -1.53494901450528   -3.02464703140914    0.46868187700456
N        -0.44593961233518   -2.97773459136887    1.17282803827819
C         0.46189526141098   -4.03664243595326    1.08063379203426
C         0.92739266491294   -4.44241772133924   -0.16497641566993
C         1.85187383185911   -5.46754669549860   -0.25889112967782
C         2.28568504036836   -6.14185574072548    0.87460348588104
O         3.16641179884064   -7.16060674755189    0.88947579913922
C         3.70928281524956   -7.61739308278561   -0.33383192511427
C         1.77644017682262   -5.75816613520117    2.14666488636736
O         2.21579584586396   -6.50204334792163    3.18659379250789
C         1.71283020093675   -6.23753468586576    4.48108277982885
C         0.89802144809901   -4.69508960215817    2.23707214305978
C        -3.60470003688858   -1.78341123995034   -0.17944157108251
H        -8.24222660383112    0.10275873625191   -0.80229696911588
H        -7.83240771727757    1.84051592750147   -0.96208313510472
H        -7.46126351764013    0.68862534641727   -2.28512985666331
H        -4.31107508250621    1.41207989340792    0.65540470875406
H        -2.09682386206333    1.15116911473141    1.72867832128761
H        -1.80372178774889   -3.90306189077014   -0.10613914361589
H         0.61227230917195   -3.91414562200671   -1.05039549369900
H         2.22530611310547   -5.74159512994705   -1.23136829052176
H         4.27936385742139   -6.82938658669960   -0.83374217652035
H         2.92771096597199   -7.98894207128597   -1.00210643001020
H         4.37679534968378   -8.43413119386782   -0.06684330855154
H         2.14404522716767   -7.00561389559991    5.11955754375845
H         0.62269084648517   -6.31061061969081    4.50843128284771
H         2.03281323143334   -5.25442539536478    4.83647867688358
H         0.48267685274525   -4.39467339882515    3.18348892520979
H        -3.99638600438528   -2.62388561922418   -0.73071702151841
Cl        0.67422261565144   -0.78846351906651   -0.44136150869089
