77
 energy: -112.927257554089 gnorm: 0.000515015233 xtb: 6.4.1 (afa7bdf)
Ir       -0.97025508418282   -0.37267029313857    1.29013794457275
C        -2.17334495482996    1.92054479808837    3.65219354587878
C        -1.10857678619253    1.01752369045561    3.12503391955457
C        -1.03187314654473   -0.37779751417008    3.51001342043466
C        -1.98399387312412   -1.04816969450083    4.44170446367776
C         0.25185535469424   -0.87649929149361    3.12175881271169
C         0.84414733849454   -2.16925567538152    3.56316654224104
C         0.89865362862049    0.14351023537522    2.35989296590854
C         2.31240440884705    0.10426403729115    1.88224449176316
C         0.07241366045870    1.34339341434039    2.41011931229031
C         0.59954948381337    2.69562121505461    2.01396676846592
C        -0.29552023209409    3.51859458106848    1.08202425958544
C         0.41201130507129    4.81700044529615    0.70245344604560
C         0.74532767108741    5.62950118705102    1.95118246741360
C         1.61546252148010    4.81269131400584    2.90271961915659
C         0.92178408926563    3.50698947730135    3.28138845699699
H        -3.16248591001800    1.49474307557182    3.49885029250259
H        -2.14317806220148    2.90220446030148    3.19489057387099
H        -2.02354397528258    2.03348705730941    4.72678990096490
H        -1.92541519781556   -2.12931966847102    4.35458671740396
H        -1.73125651695060   -0.77686234193354    5.46755972912354
H        -3.00635414940061   -0.73306457975034    4.25180615191686
H         0.08462343550007   -2.93717966555384    3.68103414960700
H         1.59983778372702   -2.52513804472431    2.86889202044047
H         1.31959637748176   -2.01449149624486    4.53257059606201
H         2.67163517193782   -0.91840850237870    1.81453351364135
H         2.40637049863114    0.56991369787517    0.90410143578113
H         2.94849455857583    0.64674890484604    2.58207968081614
H         1.53948712381360    2.53369715354980    1.47839495777328
H        -1.23758922637927    3.77043264787509    1.56965319663413
H        -0.50785988991761    2.93933690078297    0.18231219714700
H        -0.22641608313502    5.40150241921183    0.03719855736997
H         1.33202223426377    4.58841704959937    0.15993070177661
H        -0.17986146487563    5.91442279199084    2.45791663718493
H         1.26486914470691    6.54765478016858    1.66994213038801
H         1.82345360753268    5.39092961125822    3.80541284743000
H         2.57142782263971    4.59465225841990    2.42063308001544
H         0.00194335707061    3.73120678113398    3.82170867472429
H         1.56571746944135    2.92226928447139    3.94110350194942
C        -8.80021305471311    4.55387671949852    0.10925871803826
C        -8.11479080608241    3.19809870352648    0.05302449458329
O        -6.73066163052614    3.40133426233308    0.31596342642220
C        -5.89543883802130    2.35815209932906    0.34641347764077
C        -4.54070127778947    2.68043098602227    0.62971919319075
C        -3.59167360080661    1.71075293816176    0.72642196806710
C        -3.91951158418693    0.35292825757016    0.52437153398340
N        -2.96961448974608   -0.59882275556072    0.62585782547080
C        -3.26531045343192   -1.85763519656385    0.26079133150226
C        -2.14449973795175   -2.74091676503455    0.22206736198894
N        -0.99034293367048   -2.25395367474309    0.55576844660220
C         0.15775334205531   -3.05285503936085    0.47106439381879
C         1.31157246563813   -2.52535756755152   -0.10982426587073
C         2.44870403764750   -3.30114088245839   -0.22265443559132
C         2.42517307101158   -4.59805173499274    0.26490449790964
F         3.53660240241073   -5.35558360230125    0.16525451091454
C         1.29643293706955   -5.13873319098285    0.85851175170349
C         0.15713916843432   -4.36300685495158    0.95489826037916
C        -4.56813266141339   -2.25020982081061   -0.10862688004996
C        -5.56911004791105   -1.32241652006012   -0.11377506381114
C        -5.26606368372598    0.02714069476655    0.17720618977260
C        -6.23628315447549    1.03883268911257    0.11769877665544
H        -8.67199469177005    4.99834930059680    1.09223323569189
H        -8.37015508588595    5.22064939400809   -0.63295414023550
H        -9.86072570357521    4.43567648505389   -0.09184649853020
H        -8.24017919465773    2.74867120289275   -0.93970652171280
H        -8.53683112874965    2.52463436947869    0.80919658116175
H        -4.29564397622041    3.72224698579948    0.75883170132955
H        -2.55826583815903    1.95878518133222    0.90470343706424
H        -2.24895558161072   -3.75400212351271   -0.14866481944025
H         1.29062943310856   -1.51903433875673   -0.49728853601923
H         3.34443556925069   -2.91657682817547   -0.68317128549639
H         1.31925501970357   -6.14933965788179    1.23309955378619
H        -0.72495776765541   -4.76411082148198    1.42896694987566
H        -4.74925904078887   -3.27920845216129   -0.37241695591920
H        -6.58250789685235   -1.59606176870168   -0.36326709502639
H        -7.24573295911435    0.75519083028731   -0.13274817531719
Cl       -0.49245612107315    0.41466599426194   -0.90931162578872
