71
 energy: -110.698515305243 gnorm: 0.000351520578 xtb: 6.4.1 (afa7bdf)
Ir        0.07283578557423   -0.14777994224584    1.68210085267345
C        -2.00812993748244    1.53512199904285    3.85264715279808
C        -0.70664276763171    0.85722638672646    3.62827060584114
C        -0.49890040820335   -0.57785020234306    3.82281773692107
C        -1.54942209471291   -1.50248699071684    4.32979568919049
C         0.87867452067648   -0.84502102708967    3.66132242923812
C         1.61262366250315   -2.08720840259539    4.03995941869814
C         1.50303372391981    0.39457117323134    3.22271890323482
C         2.97933145369510    0.58798150675402    3.13800379899894
C         0.52654595147937    1.46271575239550    3.33134276838671
C         0.78723363470010    2.89871201068403    3.21459012057701
C         0.33736287105897    3.75513875093503    4.21981034095812
C         0.58276258767396    5.10973350378785    4.11535294624449
F         0.13816378073078    5.92564039679172    5.09605541471045
C         1.26457157394350    5.66648664650629    3.04774790341807
C         1.70014053165237    4.79358934677056    2.06685026227553
F         2.36246073277671    5.29277303877174    1.00178640152473
C         1.47681118532771    3.43191980498449    2.12587337735348
H        -2.01338717646035    2.53226107894202    3.41884088070277
H        -2.18940150733498    1.62177432835455    4.92489571014126
H        -2.82691949700525    0.95163659315476    3.43523071787157
H        -1.14988258205680   -2.50097562412416    4.47282597378747
H        -1.93365994672986   -1.13705970666476    5.28103364427577
H        -2.38158880743635   -1.56076021692795    3.62871694850489
H         1.93182740623204   -2.00400557331084    5.07939809446258
H         0.97177255521061   -2.95867462842505    3.95045215040857
H         2.49777520280263   -2.22983072050528    3.42795923814101
H         3.46374109094673   -0.25367584166126    2.65099272961171
H         3.23875686489735    1.50942603053094    2.62697540120052
H         3.36988597894022    0.64764912117960    4.15507574403486
H        -0.17923860792312    3.37587333181690    5.08588246405432
H         1.44618898161161    6.72602845462155    2.98362514382229
H         1.81733712283752    2.81161503812681    1.31229870325867
C        -3.68282356948961    3.42357242701454   -0.79606374715036
O        -2.65444916835786    2.44812782925703   -0.78256264713581
C        -2.80805158391976    1.34387766355820   -0.03934711230746
C        -3.90667036820951    1.04059373669739    0.75876422215032
C        -3.91962005434832   -0.17833116349744    1.43362898709380
N        -2.94736204184954   -1.06057508450860    1.40170610635220
C        -1.87894908572512   -0.79291351938327    0.62993539781448
C        -0.74753539576069   -1.70839759341528    0.66917422866990
N        -0.56027249829673   -2.84112084861792    0.25759779582323
C         0.52154666381170   -3.75670233332393    0.39544532736829
C        -0.03573009740385   -5.12103072414881    0.81053774535569
C        -0.64557926907033   -5.08218486225500    2.21684675403883
C        -1.23880639748132   -6.41645673138640    2.57175830246563
C        -2.57006871275357   -6.69690368505113    2.29042724985864
C        -3.10817820896046   -7.93728104672952    2.58543301089135
C        -2.31923034355181   -8.91713232209219    3.16484124734828
C        -0.99045217122450   -8.64827140052261    3.44781680826307
C        -0.45560340381523   -7.40661778875104    3.15209294573658
C        -1.75498439872328    0.40763108031850   -0.10368184549722
H        -3.84478828974545    3.84077985648087    0.20070843234621
H        -4.61635760771651    3.00518724633729   -1.17981678675626
H        -3.33147351079879    4.20524646153797   -1.46577046712039
H        -4.75067558605170    1.70380520588980    0.84222791250146
H        -4.77261779855177   -0.45275077885115    2.03992078263414
H         2.84935453055891   -0.25254912909118   -0.11033947750351
H         1.26241306506149   -3.40292410378363    1.12064595669979
H         0.98853813573700   -3.84997567365285   -0.58796833710975
H         0.76853063098716   -5.85685019200383    0.77974368557768
H        -0.80156854097451   -5.42626131767056    0.09704578276497
H         0.13444681129576   -4.82894716409962    2.93699870456920
H        -1.41930892873645   -4.31327448015764    2.24577637758299
H        -3.19224851588598   -5.93769462684659    1.83900778460872
H        -4.14601834981021   -8.14197769944644    2.36377652750812
H        -2.73854135778286   -9.88585825127278    3.39643599847348
H        -0.37110787409140   -9.40924509891412    3.90108914117573
H         0.58180749636229   -7.20561836290576    3.37909268785300
H        -1.02198976761124    0.54462891998295   -0.88886738579412
Cl        1.64103169661173    0.12464413779503   -0.22449676450751
