66
 energy: -124.793009719015 gnorm: 0.000388493010 xtb: 6.4.1 (afa7bdf)
Ir       -0.57993242613819   -0.76025804361195    1.47680865449756
C        -1.88679789829816    0.88515076903856    4.22995150829797
C        -0.71704371611600    0.34247315660172    3.49336571569735
C        -0.20999166489265   -0.99137515023204    3.66520564317507
C        -0.74858669068618   -1.99297183008568    4.62708538876147
C         1.05287095083765   -1.07610705201880    2.98502357897865
C         2.07327226064114   -2.13978433693280    3.17605251668732
C         1.26404132403419    0.15453325815955    2.28616864387797
C         2.52662209410238    0.52804287194117    1.59527194824211
C         0.15987491855632    1.04206386166151    2.60878849491711
C         0.14378965831040    2.48447850022410    2.32342711178098
C         0.04613399628543    3.38773908915778    3.38001715491725
C         0.07123513693552    4.74291725408051    3.10983528389310
F        -0.02273582007670    5.60804519927346    4.13992012103169
C         0.19036666532622    5.24667880385156    1.82719343251716
C         0.28848606646672    4.32389443148019    0.80073557621716
F         0.40529425411579    4.77584746851264   -0.46457541321014
C         0.27106249014233    2.96034466212421    1.02062515072030
H        -2.14761968711737    1.88069234444426    3.88680473037503
H        -1.63564947885572    0.92969023592695    5.29050827904261
H        -2.75254170171827    0.23377461881618    4.13234492905370
H        -0.44856580531961   -3.00082359922767    4.35415300109110
H        -0.35242674172929   -1.78152070189306    5.62087937766629
H        -1.83227978367934   -1.94375180375024    4.68045874853071
H         2.64561297009273   -1.89521099095465    4.07213042961750
H         1.62196434592762   -3.11652707913655    3.32537157938744
H         2.76387257278499   -2.18435722030918    2.34017354860003
H         2.80619661640029   -0.22202132870279    0.85792712425014
H         2.43439477587911    1.48942565079896    1.10048473311472
H         3.32714746328798    0.58811575217755    2.33278433194505
H        -0.02313877674083    3.05336255411732    4.40177061350549
H         0.20547286560684    6.30649019343169    1.63570870050760
H         0.32717291482275    2.28451885126636    0.18250682537807
C        -6.94667554032130    0.84931578228903   -0.30743276673374
O        -5.60454690270185    0.95010457547240    0.15108041355276
C        -4.84378515266795   -0.13131141808999    0.21182594852142
C        -5.20372041918836   -1.43299945586679   -0.15106403035095
C        -4.26012734699488   -2.43483300437297   -0.05496550656924
C        -2.98455175392309   -2.14712132376645    0.42999059717284
C        -1.91741586952268   -3.09437415617254    0.44675657171044
N        -0.73521511791797   -2.69063286120023    0.78794671338011
C         0.31846794911419   -3.61864225964538    0.81935579353062
C         0.12369161523462   -4.83858969406920    1.46648413081529
C         1.14658523861972   -5.76828579199451    1.54502265225964
C         0.88513509977312   -7.04835894444918    2.28206363750844
F         1.88856644136855   -7.92949117914863    2.20420133979628
F         0.66561105933913   -6.83583862681143    3.59900334470533
F        -0.21914263057656   -7.68084748597151    1.83398447601330
C         2.38661345179903   -5.49840182493855    0.96942366588180
C         2.58208462177038   -4.30012784441637    0.32304242301589
C         1.56927417823396   -3.33556020977808    0.22755371193372
O         1.86648564529200   -2.21620014201985   -0.41862521279548
N        -2.64541259350131   -0.89612012418307    0.84398573059978
C        -3.53103193252739    0.06967436626680    0.70048289066754
Br       -3.06231861060329    1.84317074612607    1.11948788951693
H        -6.98216065783527    0.48830872795404   -1.33705273265618
H        -7.53213257304271    0.19681858508735    0.34302729331746
H        -7.34002838442339    1.86223010328128   -0.26136466942216
H        -6.19206123150271   -1.64951441482295   -0.52241758365404
H        -4.49655827375821   -3.44037102056574   -0.36309703771462
H        -2.09045971609473   -4.11132931110822    0.11249382381618
H        -0.82614638513565   -5.04419044037994    1.93725291563343
H         3.18249584648167   -6.22298062934945    1.03086297449713
H         3.52979592837672   -4.06934135824633   -0.13531636435055
H         1.10750568963732   -1.61518271175283   -0.60372224470518
Cl       -0.30452582160994   -0.11693104393097   -0.82257825348706
