73
 energy: -122.179501936652 gnorm: 0.000392748525 xtb: 6.4.1 (afa7bdf)
Ir       -0.28181206922226   -1.16623422540937    1.53941172467880
C        -1.89527978882300    0.05470199477525    4.24872853957826
C        -0.60926786986968   -0.17533297992642    3.53192085330257
C         0.25049817618066   -1.29648607560208    3.74288481887014
C         0.02697695408684   -2.33871114730331    4.78425666034922
C         1.44955208168173   -1.09403132210517    2.97027638242943
C         2.69205497874799   -1.91858213290600    3.04877066971510
C         1.35167881191534    0.18014614166258    2.32943222890485
C         2.45385055312532    0.87573584992018    1.61319541880067
C         0.05539856423815    0.72957475300145    2.62961549789668
C        -0.38822912874476    2.08493341467365    2.27634900886981
C        -0.80367684703056    2.96671972734164    3.27303236114831
C        -1.19755774873935    4.24328687922818    2.91852691941706
F        -1.59550834824400    5.09013454872280    3.88978130835599
C        -1.20469306365554    4.68629601480054    1.60727324089368
C        -0.78598798586465    3.78780336650994    0.64051622703116
F        -0.78660210160329    4.18096965505042   -0.64889355709773
C        -0.37891646940316    2.50320458906147    0.94547171146935
H        -2.48863918293581    0.82483097175143    3.76433251123729
H        -1.68423706023232    0.37206580259077    5.27065472212884
H        -2.47825541871088   -0.86127468637151    4.30448146392716
H         0.81007302402734   -3.08878154211447    4.75542182000430
H         0.04747224389102   -1.86184741558576    5.76483800301247
H        -0.94303769204009   -2.81803531395354    4.67345880531987
H         3.20779587057316   -1.71207099307294    3.98683841557419
H         2.46383988564068   -2.98087720861175    3.00514425384830
H         3.35901671321048   -1.68052615104882    2.22585079149864
H         2.66277388986899    0.39735278446917    0.65693390064594
H         2.19340426917037    1.91379034244073    1.42412571771317
H         3.36094520295701    0.83662390823109    2.21439495118297
H        -0.79735629898558    2.68311029116100    4.31227523559540
H        -1.51597385135851    5.68533029282108    1.35146708987039
H        -0.07730636973326    1.83282378167752    0.15552791042860
C         4.09477920296452   -7.34432433253986   -0.31686224078601
O         3.41568195214985   -6.94592154709541    0.85740753542545
C         2.46004795000046   -5.99884195368841    0.77041707614034
C         2.07523449160926   -5.34625000753963   -0.39224311163051
C         1.06758331777450   -4.39729608721231   -0.37402160567500
C         0.46055303095718   -4.05081590662368    0.82660062467609
N        -0.54647549747580   -3.07622943016076    0.84058552100978
C        -1.58150028573116   -3.23795343758893    0.07229499101739
C        -2.51949663263892   -2.16597121081326   -0.00892870755281
C        -3.69975460989396   -2.18599006135129   -0.76128217506726
C        -4.49996770882106   -1.06968406473860   -0.78971289156591
C        -4.11195837284981    0.07389133669176   -0.06782362651752
C        -4.90869264477189    1.27122247551504   -0.08236075151867
C        -4.71292532192315    2.51399637139087    0.48670868470856
C        -5.82543695031567    3.29510381475848    0.12474069225351
C        -6.62170283330089    2.48364960502874   -0.63480585226975
O        -6.07981500759388    1.27146207615950   -0.76422854784769
C        -2.92422725848775    0.01033166195087    0.66766666201427
N        -2.15966112187759   -1.06872534665850    0.70580265374406
C         0.84276818537692   -4.68928611577438    2.01255597878720
C         1.81160591167828   -5.67530240239672    1.99421808572234
O         2.21653922015245   -6.39501705146118    3.06508534094825
C         1.57684821252433   -6.19168890598641    4.30935260934631
H         3.40580768716457   -7.77803916199029   -1.04681154917143
H         4.63313538079581   -6.50656847885151   -0.76849111586587
H         4.80695558857491   -8.10186804140157    0.00405662084931
H         2.55256481318233   -5.57843321737154   -1.32956550137536
H         0.78715828332809   -3.88646695971642   -1.28104822696482
H        -1.72529128274095   -4.15106271662809   -0.49289734714002
H        -3.95773679555178   -3.07263358074017   -1.31744200250948
H        -5.41307579978551   -1.05107251436026   -1.36256529104251
H        -3.87713068699670    2.83055151926404    1.07616577913321
H        -6.01338816560545    4.31495274624754    0.38846973410824
H        -7.56290158462791    2.65793544137018   -1.11798793599862
H        -2.59337355002258    0.86812650984918    1.23222552632071
H         0.32178234287794   -4.43744879958921    2.92002506435134
H         1.78366881686826   -5.19244236034742    4.70195932962188
H         0.49810792920081   -6.35018124214015    4.23423461020758
H         2.00647458957721   -6.93388053082298    4.97884546606098
Cl        0.45660828019112   -0.74671300864015   -0.68038971256322
