86
 energy: -118.629027458733 gnorm: 0.000688692965 xtb: 6.4.1 (afa7bdf)
Ir       -0.46999292440021   -0.20668574521621    1.64344546807150
C        -1.85702767075199    1.51444872880022    4.24313824986211
C        -0.69383090333757    0.77773644694451    3.67626376042007
C        -0.49122278497752   -0.63861656547651    3.82632300131863
C         0.82917034093744   -0.94297856398603    3.35752510926294
C         1.58044259752813   -2.20376312381104    3.60780691443016
C         1.39192682839710    0.24884403680011    2.80805423080870
C         0.45065341775944    1.33141402033252    3.02796863468994
C         0.77543932179630    2.75857261281875    2.88857435265291
C         0.62652961329451    3.61036022277821    3.98263361205771
C         0.93412829458905    4.95215991556444    3.87382992055282
C         1.40368163217967    5.48431695317714    2.67441863409246
C         1.71438923556509    6.91658826341010    2.55812084385980
C         2.84455326918057    7.34540305049189    1.86467137123953
C         3.13677123458476    8.69282936882271    1.75973150064068
C         2.30161090123287    9.63472481152286    2.33868976903349
C         1.17301386035590    9.21979648750359    3.02696795709967
C         0.88320744085289    7.87242775052697    3.13886949277835
C         1.56568230614833    4.62650629482973    1.58705626561574
C         1.25801949259729    3.28538488406410    1.68948753719194
C         2.81609733161897    0.40704501403376    2.40082915256951
C        -1.36946131945111   -1.55202906204759    4.61514566253233
H        -1.76184403748778    1.54165222421982    5.32942298322498
H        -2.79213591786190    1.01084141004361    4.00858294994294
H        -1.89545193720248    2.53306177749894    3.87249102327689
H         2.14541927799152   -2.08314983034003    4.53386219167186
H         2.29388380909181   -2.40836052973042    2.81398660778019
H         0.91390925279860   -3.05229318321048    3.73564656219817
H         0.29169993931459    3.21496626328684    4.92921454754454
H         0.82807665233747    5.59428135651935    4.73541513790738
H         3.50983798036331    6.61797457996949    1.42282109527792
H         4.02026449306975    9.01095593550497    1.22488265452080
H         2.52975571574306   10.68719002962517    2.25385721204195
H         0.51637959844428    9.95007831840118    3.47688268247238
H        -0.00656113993052    7.55915196819844    3.66470585170037
H         1.91118057347113    5.02217683816241    0.64384595676715
H         1.34236185215978    2.64664641964235    0.82308686964036
H         3.15110778049193   -0.42138981215375    1.78057653344460
H         2.96881608939294    1.33398188740018    1.85701393667286
H         3.43849376779132    0.42629631789964    3.29701837850818
H        -2.40907098819302   -1.24351438024844    4.55320275928932
H        -1.28793143478155   -2.57802982207268    4.26612704128678
H        -1.06954154661186   -1.52644805534362    5.66347118596141
C         4.12844266316928   -1.99665947029632   -1.31163814750153
C         3.81560997883386   -3.20226693529508   -0.87443772832273
C         2.50888609367330   -3.63155221736654   -0.27634855751659
C         1.46258234318028   -2.52538414012307   -0.17923910166031
C         0.19836103828602   -3.03722827876510    0.51222230403683
N        -0.79018777319577   -2.00456778988356    0.71682897449264
C        -1.99258953053429   -2.21388035174965    0.33011893300165
C        -3.01154523764239   -1.22743839484342    0.57947434542235
C        -4.34795208209668   -1.55577402908280    0.44703982457421
C        -5.29479684536739   -0.61248507851818    0.84409341538683
C        -4.86808993158443    0.63124411762011    1.21925140825719
C        -3.48590762704521    0.97285406748769    1.17948820789035
N        -3.10989842834043    2.25079618182795    1.33282592682028
C        -1.89254883571494    2.76955336104584    0.73868477135544
C        -2.21509263340892    4.00939483680745   -0.09074172282760
C        -2.67508502652742    5.15069841697775    0.82164693048905
C        -3.33681506336388    4.57561796440582    2.07777087027054
C        -4.06068927549581    3.27001724649992    1.76433228215055
N        -2.56744945857628   -0.00979752196184    0.98867166512449
H         3.44217314353019   -1.16820278250658   -1.28577802438466
H         5.10025901352229   -1.78855098405497   -1.72680709231014
H         4.54927310475408   -3.99765019980720   -0.93322783004535
H         2.71143120694849   -4.04220300281338    0.71845274190458
H         2.11697177521184   -4.45599560802869   -0.87987145286576
H         1.20958851916251   -2.16770957978775   -1.17715486906689
H         1.86375126344439   -1.68186897643961    0.38121441948065
H        -0.23525278199936   -3.85297598520981   -0.07636920740101
H         0.47037244949327   -3.43107608530118    1.49557997111478
H        -2.27833714915212   -3.13834396339733   -0.16414903948747
H        -4.63744057469121   -2.52857398778286    0.08941275550265
H        -6.34615944736573   -0.85223170109663    0.83469264871949
H        -5.58951834764273    1.37691837541456    1.50010135499018
H        -1.17007328135778    3.03941506646495    1.50864265836159
H        -1.45828723289871    2.00416006254740    0.09924824419337
H        -1.32602443238770    4.30003962017498   -0.64851492572069
H        -2.99151294722538    3.76057840258441   -0.81601042279669
H        -3.37377412993963    5.79286601583856    0.28458656710833
H        -1.82251123604319    5.76512966212714    1.11346483767537
H        -4.05672504291880    5.28517557154406    2.48545688513812
H        -2.58285072095137    4.39955697592696    2.84572914004726
H        -4.57229903929076    2.91949580782960    2.66414940436607
H        -4.80673959388937    3.46052074869214    0.98379416851763
Cl        0.28559781734266    0.49668404712984   -0.51373713640460
