60
 energy: -97.625634216765 gnorm: 0.000447205659 xtb: 6.4.1 (afa7bdf)
Ir        0.09143173646908   -0.92220898113013    1.92277559633929
C        -2.79212966645791   -0.28892257385389    3.62823705539970
C        -1.42653131650575   -0.88129121316394    3.58253116689645
C        -1.14183055200502   -2.25134560351561    3.27533513992172
C        -2.18049399290750   -3.28953425807178    3.02015538739808
C         0.26205732494781   -2.48277253447586    3.52321000630285
C         0.93522611041438   -3.81442778729807    3.53167361230929
C         0.82156024200233   -1.26808437157601    4.03150413944424
C         2.17682713278585   -1.09410259266527    4.61268707088264
C        -0.20311413819440   -0.25798472342408    4.01246208437615
C        -0.06465617204541    1.09426199104039    4.63129433082144
H        -3.22885396767830   -0.49622748648246    4.60616332739877
H        -3.43657299095776   -0.72839897649489    2.87214606138171
H        -2.77130634448338    0.78837768332650    3.49284840693746
H        -2.83926517093748   -3.00703927030227    2.20193133430049
H        -1.72937656944583   -4.25315790459063    2.80805553758430
H        -2.79462452130474   -3.39079636528094    3.91573983011286
H         0.54932354846777   -4.45925432047894    2.74701807174114
H         2.00701268177677   -3.70715209939827    3.39096191948930
H         0.76306558289664   -4.29778656623596    4.49345218765726
H         2.54564706233521   -0.08524869668769    4.44853529686648
H         2.88619860828385   -1.79765991874891    4.18652066056801
H         2.12162115858444   -1.26784014538597    5.68839653206593
H         0.07171258401214    0.98374624115825    5.70711891523985
H        -0.94885444046997    1.70191139224848    4.46354096730916
H         0.80606241624791    1.61524769367238    4.23819584788744
C        -1.14647090799140    4.15368301616764   -4.58452262965261
O        -0.96630205574245    3.22140847917117   -3.51629517628158
C        -1.20528980581523    3.62211342009261   -2.27602597600384
O        -1.56850173313073    4.72886874271460   -1.95479543732119
C        -0.96916176575528    2.52405836552891   -1.28502311377037
C        -1.16182127194064    2.78744158728099    0.07458312907108
C        -0.94312167921697    1.78177037450029    0.99438614077478
N        -0.56192642461927    0.55517867071157    0.64187199376852
C        -0.36185125953476    0.29066027787990   -0.67394187777893
C         0.09528261145070   -1.04234230623532   -0.93553563153709
N         0.22491384975559   -1.83296037722237    0.08039322513929
C         0.76314771174283   -3.11572765440473   -0.12152255704887
C         0.02803686458710   -4.24801533741445    0.22708778816762
C         0.56184527559618   -5.50825006964657    0.02044479639781
C         1.82876494649438   -5.65541001026258   -0.51919455593852
C         2.56245798779267   -4.52525136101762   -0.87319520131498
C         3.91587621635402   -4.63228192115242   -1.48124281044562
O         4.54429523346231   -3.68319008396936   -1.89357471393183
O         4.37087648206812   -5.87921606780220   -1.53581032859689
C         2.02659264374804   -3.25638112084527   -0.68405968750598
C        -0.55871779775823    1.25507124065560   -1.66249534253904
H        -0.24860946256951    4.11985586556596   -5.19894465138364
H        -2.01265069231495    3.84312268917848   -5.16852263195985
H        -1.30268770312111    5.15681461164806   -4.18672654723292
H        -1.47745977671397    3.77045989723867    0.38592624581592
H        -1.07280215306476    1.96640243335350    2.04965280490132
H         0.33049957830419   -1.36355507112859   -1.94394308147422
H        -0.96930116078424   -4.12758927673734    0.61778896765139
H        -0.01449901573071   -6.38276856367093    0.27896103899568
H         2.25156749628107   -6.63438673911227   -0.67562507401537
H         5.25395828968805   -5.92762032357979   -1.94369913352949
H         2.61308785917895   -2.38908183881526   -0.94631909808306
H        -0.38400442720679    1.01320558748519   -2.69812770748637
Cl        2.23811170088149   -0.05410874842071    1.37210634763194
