72
 energy: -111.948341815667 gnorm: 0.000248746414 xtb: 6.4.1 (afa7bdf)
Ir        0.70535195811462   -0.42680419110934    1.62419049048467
C        -0.65158443954958    0.95508837250483    4.35769694710410
C         0.57819656137411    0.57932730643330    3.60333786485187
C         1.32260353754094   -0.62929567798524    3.77070825350157
C         2.50874812347589   -0.54102657807717    2.96012949675362
C         3.68023178365731   -1.46229777331344    3.03147470618265
C         2.52041504940578    0.74440934647528    2.32947097021369
C         1.30755571768226    1.42482613005900    2.68323277478053
C         1.00950143764531    2.82399719810104    2.34924441541139
C         0.73253462690170    3.75274424730421    3.35135193277354
C         0.50116499191218    5.07607188410684    3.03223519199592
C         0.53645911588249    5.51307743226769    1.70848134141682
C         0.30436135341219    6.92660251773091    1.37647901785528
C         1.07620445572061    7.56036055884650    0.40434774168507
C         0.86763065403813    8.89241661119439    0.09784643953237
C        -0.11860260262578    9.61210246524231    0.75289887897607
C        -0.89419241989469    8.99111915131350    1.71846624582298
C        -0.68363014142468    7.66043454958205    2.03027523950542
C         0.80923003715255    4.57969059459461    0.70895682402916
C         1.04336590641392    3.25579177694598    1.02235187979709
C         3.65603376117609    1.31125238190484    1.55556899914219
C         1.02034269262167   -1.71949222875388    4.73912853275642
H        -0.37456270011184    1.25739996028941    5.36820748957219
H        -1.33506612036482    0.11347809141576    4.44150742599006
H        -1.16479587133198    1.78387305401736    3.87812307696171
H         4.32600180553826   -1.14970272293601    3.85349116591036
H         4.25902578214577   -1.42682918051929    2.11312717433611
H         3.36912361682754   -2.48680188954199    3.21482762040024
H         0.73216598213964    3.44461729057444    4.38496090451040
H         0.31638526901987    5.78817362161010    3.82225308385614
H         1.85953032155732    7.01246985072829   -0.09871910579029
H         1.47774993797846    9.37279722776469   -0.65343554873937
H        -0.28149003927386   10.65233081132175    0.51186020012661
H        -1.66650291892883    9.54750762678464    2.22956843072296
H        -1.30430184235270    7.18120839501001    2.77329872879842
H         0.82302758554703    4.89221633339762   -0.32426298479658
H         1.23941021106138    2.54144709367638    0.23571069068119
H         3.72912073554112    0.84409594303862    0.57378920454191
H         3.52570922253532    2.38093168804431    1.41434656223674
H         4.58840084438512    1.12581788025780    2.08591744144372
H        -0.03842430370070   -1.75266596723592    4.97826415363644
H         1.33196763485695   -2.68588923106850    4.34970788694319
H         1.57166367582010   -1.53557010565702    5.66183029555004
C        -0.90263288724139   -6.94632295308098    3.15655946499852
O         0.45900775746578   -6.88236987072660    2.76903303999898
C         0.92513230154174   -5.75255341338313    2.20736973130064
C         0.19281748479083   -4.58943911391372    1.99414213271426
C         0.79069277689850   -3.47337795814459    1.40314968876580
N         0.04223449955946   -2.30938428095829    1.17669404898976
C        -1.12360058883091   -2.39074911728810    0.61875774552743
C        -1.83675070032522   -1.16489074147746    0.40732015178990
C        -3.07393261058073   -1.07396718682538   -0.23203973548959
C        -3.65267510709654    0.17075947086320   -0.39618587705567
C        -2.97614019144125    1.28966527109069    0.07734552592464
C        -1.74800673853999    1.12701127556285    0.69594786749273
N        -1.18940579866943   -0.06668337391300    0.86725057315921
C         2.12546454350155   -3.50304164520675    1.01539787438232
C         2.86303949683473   -4.65846251560979    1.20814517696185
C         2.27027972155499   -5.75452064235379    1.79735719985691
F         3.00079508729917   -6.87205519822761    1.99164148198959
H        -1.56310900557830   -6.80190366960352    2.29805278298056
H        -1.03959199493834   -7.94964519611490    3.55369917612219
H        -1.12667799966719   -6.21311899443628    3.93485266104950
H        -0.83642051169222   -4.52817136994245    2.30771084035394
H        -1.53216744126427   -3.33664756094565    0.28257268522645
H        -3.55300407641267   -1.96941421186300   -0.59367009792638
H        -4.60811307982830    0.27250452777889   -0.88616474627891
H        -3.39128736116836    2.27822727638564   -0.02968618676895
H        -1.19607546515707    1.98251029233317    1.05930900942757
H         2.55655588915830   -2.64324944967892    0.52980444661044
H         3.89502026807767   -4.72153441343912    0.90375802382525
Cl        1.41698774195923   -0.29838308307645   -0.64309976729595
