71
 energy: -111.783325354832 gnorm: 0.000703055329 xtb: 6.4.1 (afa7bdf)
Ir       -0.54675674881656   -0.69497276778365    1.52269291254305
C        -1.88779551738569    1.23267186883680    4.01810780185517
C        -0.70738844257499    0.56913207308869    3.39322643384476
C        -0.30241514203750   -0.76976021484163    3.73512199441204
C        -0.95966674736572   -1.62516157461901    4.76378161528756
C         0.99646624183699   -1.00535621067678    3.16000718867968
C         1.87375385303757   -2.16436752357033    3.48488235670249
C         1.33757401922096    0.12897170002212    2.37803465644031
C         2.64474816418174    0.37257983280241    1.70283557496914
C         0.27300233090283    1.11748016406320    2.51312331205194
C         0.42370739111084    2.53688120681474    2.03540935834010
C        -0.75168265966529    3.06907173966835    1.20846069837156
C        -0.42793268426259    4.47035536091980    0.69726481821649
C        -0.14090698706374    5.41275041064913    1.86393145252272
C         1.00718004759263    4.87791363250253    2.71672101397351
C         0.69505330541109    3.47274319719253    3.22468835978912
H        -2.76593713937748    0.59191849898021    3.97738707761406
H        -2.11836799859111    2.18252019033303    3.55047264632330
H        -1.66191488582116    1.41402397428380    5.06947181527555
H        -0.71581716642327   -2.67355904683095    4.61753811544391
H        -0.60267145694626   -1.33126545305591    5.75177615639140
H        -2.03917254093954   -1.50614142253777    4.74636514200237
H         1.29578476572309   -3.07100026159948    3.64280687031085
H         2.60302166578071   -2.34999223797060    2.70148205617239
H         2.41382793386708   -1.94291433099023    4.40607931658902
H         3.23690038518117   -0.53654745984227    1.66043967065164
H         2.49553739772803    0.73859906280293    0.68895950545645
H         3.20622305305159    1.12428478748173    2.25759973912564
H         1.30226578206559    2.56766094254375    1.38400705087564
H        -1.65665742295901    3.12524020672682    1.81333901879098
H        -0.93165553654422    2.39763761931013    0.36761461891389
H        -1.26592815973991    4.85113263086056    0.11002445521830
H         0.44371841529063    4.42853135613993    0.04060741945597
H        -1.03683295881119    5.51261212798197    2.48161551751973
H         0.11136617016989    6.40520086884915    1.48520803446508
H         1.18163709142240    5.54318712273473    3.56501521622302
H         1.92116066901697    4.85671294501164    2.11822149471627
H        -0.17764591484148    3.51085093291834    3.87687418009952
H         1.53575066319235    3.09432591504076    3.80942494771381
C        -7.24203206548707   -0.23829670799698   -0.77471904473041
O        -6.25260523706839   -1.25843614853659   -0.79341569401757
C        -5.06866004322157   -1.03796055531775   -0.23929898587367
C        -4.66240497919746    0.15087501225290    0.38857428169738
C        -3.39820829956646    0.23254719680807    0.93204497614566
N        -2.52210374393288   -0.76833815546013    0.90627680854214
C        -2.88872092876869   -1.92040152004169    0.28359271183011
C        -1.85197256729838   -2.91184171813583    0.25217503308669
N        -0.71708801900064   -2.58327447982866    0.77948072998446
C         0.34843419187010   -3.49455807430818    0.77368851395775
C         1.58370548055951   -3.09801428918244    0.26331480430777
C         2.64094805485238   -3.98686308813024    0.25001144994975
C         2.46980306690935   -5.26868042198689    0.76251606120636
C         3.62995740688053   -6.22280073879709    0.79494453737749
F         4.28698477011759   -6.17580819468478    1.97593382819726
F         4.54981974958384   -5.96835884929691   -0.14876782869598
F         3.25853957423026   -7.50379945891828    0.63203254409006
C         1.24338817405732   -5.66696791964455    1.28227996040596
C         0.18040982257059   -4.78382236387337    1.27863142024175
C        -4.13902423168690   -2.08657652225000   -0.28708968703362
H        -8.10597121541603   -0.66637212654537   -1.27808078585829
H        -6.90423947153094    0.64627577809315   -1.31832370411353
H        -7.51044843017098    0.02844010627846    0.24962710283463
H        -5.31471546818606    1.00503354925808    0.45498197363667
H        -3.07415613960912    1.14460104525258    1.40923532523634
H        -2.00436097250918   -3.86831624887040   -0.23439631218831
H         1.69110676761305   -2.10450374700908   -0.14417591354608
H         3.59482572374977   -3.69348041363578   -0.15959546457178
H         1.12239213641913   -6.66330667976572    1.67802035160035
H        -0.77255181623857   -5.08277259111647    1.68586697569888
H        -4.40478435689969   -3.00810710641106   -0.77763641610783
Cl       -0.08744616928020   -0.03878243245740   -0.72853916657810
