68
 energy: -119.395205133644 gnorm: 0.000473846851 xtb: 6.4.1 (afa7bdf)
Ir       -0.56449867846074   -0.84647836222865    1.52175733894797
C        -1.78468699481704    1.01136644035001    4.17226611179272
C        -0.63519348853072    0.40147700426721    3.45501184068386
C        -0.13410257909198   -0.91707093413611    3.71798268605805
C        -0.65630825218732   -1.83672533197712    4.76774016494632
C         1.10513293698416   -1.07105185845790    3.00568830249562
C         2.12303573220924   -2.13074084526201    3.23867177767002
C         1.31571342288450    0.10795470110038    2.22413932300545
C         2.57020057796705    0.42479697293813    1.49097610193810
C         0.22683629034052    1.02459952634776    2.49844041453159
C         0.23117310286820    2.44233281102655    2.10870767221601
C         0.17753295606904    3.42392491730760    3.09590021031637
C         0.23665216646991    4.75342511446344    2.72368191564434
F         0.18884506944202    5.69659633503315    3.68722086154363
C         0.34659466363129    5.15582026616741    1.40511942625336
C         0.39534841137318    4.15651426743891    0.44899294165086
F         0.49872917955641    4.51025287343037   -0.84881807137674
C         0.34405847102512    2.81463479666092    0.77090575244057
H        -2.04254470682929    1.98068259872701    3.75884811729364
H        -1.51193816420743    1.13433172906091    5.22119258368940
H        -2.65911322376509    0.36504169354326    4.14027084530331
H        -0.36126790335923   -2.86293968375479    4.56894408822010
H        -0.24204573294279   -1.54691233383065    5.73405280361386
H        -1.73889264773183   -1.78006320910546    4.83611418281093
H         2.76861171919805   -1.80494534428162    4.05574115027921
H         1.67103171988299   -3.07592820766131    3.52437317770668
H         2.74609084913596   -2.28454680506990    2.36275732745190
H         2.83193999911008   -0.37034790049893    0.79673105087321
H         2.47840267256244    1.35505543175351    0.93902856868902
H         3.38404442092984    0.52136943700081    2.21021608591199
H         0.11688935119473    3.16871935846803    4.14081019451043
H         0.39102573595555    6.19757356805160    1.13481634377344
H         0.35944897894439    2.07398584803373   -0.01345461070266
C        -6.82717210602805    0.90547861776345   -0.49341556193758
O        -5.49384004208890    0.98522748200765   -0.00541654959735
C        -4.78147979503171   -0.11969307462271    0.14909068240104
C        -5.19263395112241   -1.42628467394341   -0.13316794195503
C        -4.30269294452898   -2.45986995995953    0.06966424092961
C        -3.02775061833354   -2.19528469925508    0.56854496542428
C        -2.00934996341753   -3.18698933725830    0.69380582738567
N        -0.82349848839022   -2.79709040213379    1.03504275399928
C         0.22104003232641   -3.73514746808256    1.09331312793390
C         0.09308287544270   -4.89069809487821    1.86597930957330
C         1.13436793734074   -5.80109687208587    1.90836279306367
C         2.27951213631747   -5.56132589168283    1.17110977682564
S         3.61792445449983   -6.76791204750182    1.21061025615847
C         3.16687970564591   -7.95810751929433   -0.07520556677707
O         4.84268019221567   -6.10376596559118    0.83445050834022
O         3.59087206399875   -7.42853416455177    2.49397426305351
C         2.41233064742673   -4.42350260292728    0.39584694674025
C         1.38529660122463   -3.49755650287517    0.36226303971118
N        -2.63281771356923   -0.93152213564271    0.89089074883800
C        -3.47388309238301    0.05861420356702    0.65978491370652
Br       -2.95408230513310    1.83633562315762    0.99164980335211
H        -7.45202120210615    0.31114152474252    0.17601428452167
H        -6.84903570317462    0.48878336555429   -1.50237208871973
H        -7.18508750463806    1.93229985101891   -0.51400432137593
H        -6.17893075083712   -1.62340387811793   -0.52015250754032
H        -4.57946203147387   -3.47429824738375   -0.16712935246002
H        -2.21398236960857   -4.22083532999590    0.43921220612475
H        -0.80368588187232   -5.05778034387364    2.44242947147716
H         1.08024961437627   -6.68992758579664    2.51625272021260
H         3.95924178040762   -8.69464283411073   -0.13091304916062
H         2.23357481072782   -8.42519992268703    0.21038885839877
H         3.07866250781628   -7.42382478043478   -1.01206592791892
H         3.32653656054782   -4.27341769590517   -0.15582072207619
H         1.45397069929555   -2.60455895135991   -0.24008425717850
Cl       -0.19419221169776   -0.41599656078766   -0.78814133166275
