74
 energy: -113.934666499968 gnorm: 0.000631218862 xtb: 6.4.1 (afa7bdf)
Ir       -0.66270090764161   -0.37987658895814    1.49497711206270
C        -2.30943858885701    1.30998002924039    4.02539294069511
C        -1.05586970315912    0.70420628189232    3.49760340163005
C        -0.65877263590174   -0.65790993395743    3.71637128967695
C        -1.40738673064100   -1.63036332609748    4.56418934084226
C         0.70220191425054   -0.80046796422531    3.26330681888592
C         1.62202905192471   -1.91933383906141    3.61360966868613
C         1.08970122998022    0.41810194484286    2.64233109175327
C         2.46938036133652    0.77178719433728    2.20676981330257
C        -0.00973241166884    1.36065867383595    2.78864502653171
C         0.11704404496809    2.80970793973892    2.55951896270160
C        -0.04687109678849    3.68049195282161    3.63582391608789
C         0.12203238605722    5.03687262619565    3.43387898148820
F        -0.03473777647452    5.87187268580412    4.48256100831913
C         0.44276408048640    5.57408371107835    2.20002296689114
C         0.59451719081542    4.68356836382773    1.15119966442287
F         0.89759519672414    5.17277707664637   -0.06883391705931
C         0.44108328036198    3.31912009337973    1.30348782933983
H        -2.44069747046350    2.32563071081967    3.66501971422279
H        -2.25899017267157    1.32583645236298    5.11462192349913
H        -3.18150479328025    0.72180828179604    3.74707154696888
H        -1.15971420854145   -2.65612996471511    4.30699744265486
H        -1.14485456786223   -1.46991077872054    5.61057439347523
H        -2.47957401351801   -1.49042791365267    4.46000039905565
H         2.16435729994975   -1.63951037360037    4.51823599376897
H         1.07794557670183   -2.83534282380917    3.82429736362298
H         2.35649538079237   -2.09538738785406    2.83258050970426
H         2.99910667129047   -0.09671437935069    1.82427311775463
H         2.45662270549804    1.54079992120631    1.44012149268705
H         3.02131962422717    1.15605948374137    3.06552846090722
H        -0.27688207721021    3.31509601947692    4.62317283749264
H         0.57051202069177    6.63472008932953    2.06217011897339
H         0.54548568918183    2.66816597519858    0.44850757229816
C         4.06945573897702   -1.86299001662190   -1.31709774012273
C         3.91451765685381   -3.04718344268028   -0.75454883798433
C         2.67474702038725   -3.57527727587609   -0.09514317430058
C         1.49591113265875   -2.60714256779798   -0.10807332300021
C         0.29750942492116   -3.18671851522370    0.65214566836190
N        -0.79100532841188   -2.24230297959069    0.69358834521643
C        -1.91338268109465   -2.54593714079813    0.13993940238734
C        -2.94237573731477   -1.54997327461409    0.12106250563181
C        -4.22006202985304   -1.77611248706954   -0.43046456393620
C        -5.12898341800953   -0.75954904253074   -0.44540705634760
C        -4.74654627914119    0.51884726470060    0.02498332504231
C        -5.60835180993748    1.61656010894242   -0.02163464123046
C        -5.19835835923209    2.87685844714090    0.38615638475449
O        -6.10428516537036    3.85809738594605    0.30534240168774
C        -5.76638429727069    5.18708964124110    0.68890221921286
C        -7.00678954698121    6.04652672248964    0.50278712360604
C        -3.86733328243108    3.04331476703178    0.83479622298988
C        -3.01623528215212    1.97681762506700    0.91377053400929
C        -3.42263961686985    0.68186869262577    0.54328118701475
N        -2.57802718993695   -0.36994814711269    0.64285668135716
H         5.00562814906705   -1.57667209878708   -1.76608605813199
H         3.28367531908646   -1.12933352090279   -1.36624543784862
H         4.74401608329576   -3.74403171952976   -0.74239193635981
H         2.92805359237501   -3.84351657954855    0.93539082517990
H         2.39443356496968   -4.50435238355076   -0.60009392117361
H         1.78599917787682   -1.66001694099388    0.34725193987863
H         1.20044604011274   -2.40055924260966   -1.13677730390619
H        -0.03050907806880   -4.11301359342157    0.17075404450687
H         0.59830067578252   -3.41316446878267    1.67708481027050
H        -2.07769904069852   -3.50857944088384   -0.33316666217704
H        -4.45521828948653   -2.75287561157100   -0.81968377162977
H        -6.12623346800814   -0.90233964791499   -0.83086511860344
H        -6.61088362872251    1.49470630635991   -0.39887726402389
H        -4.94860789596907    5.55889873004131    0.05903171100516
H        -5.44894744485857    5.20175084592906    1.73882097756367
H        -7.33016662972491    6.01525535950383   -0.53389906286069
H        -7.81385189726158    5.67919164203271    1.13039229600592
H        -6.78372453209282    7.07379975865276    0.77484851507254
H        -3.50645594103084    4.02107711763189    1.10951299277772
H        -1.99420307987418    2.13230311000041    1.21596904274001
Cl        0.01485082286749    0.41896537949755   -0.64247508597587
