74
 energy: -114.575769684435 gnorm: 0.000595710573 xtb: 6.4.1 (afa7bdf)
Ir       -0.63636624345407   -0.73264265729651    1.03345706129617
C        -1.55806240742631    1.95161402721425    3.05277043970933
C        -0.52707351342487    1.00952959486846    2.52839010050697
C        -0.18337799152557   -0.24253234750364    3.16015095131124
C        -0.79884299701776   -0.78680301611826    4.40309983085832
C         1.03140732544686   -0.72153468780308    2.56243012366952
C         1.85842010822293   -1.83545112938361    3.09970413145992
C         1.35259637316863    0.13713485696867    1.47397582029329
C         2.59878596720183    0.11658569146072    0.65475536572573
C         0.39032759668788    1.22980152274600    1.46800306865429
C         0.53759608257580    2.45128121729778    0.62294851235112
H        -1.24251286030949    2.29727633096119    4.03750138543300
H        -2.52485840597043    1.46486736206886    3.16154791581938
H        -1.67377587012113    2.81584706335203    2.40685917323841
H        -1.78775755354391   -0.36862219821800    4.56434922570990
H        -0.88064214029004   -1.87006059696237    4.34733316328665
H        -0.17187114015560   -0.53908967797733    5.26008733807264
H         1.23099647151026   -2.59835661700729    3.55178869300416
H         2.47284412167145   -2.28964076233707    2.32738273035560
H         2.51702051849091   -1.43699021850730    3.87213218622456
H         2.38166357189399    0.37824109782140   -0.37815426108050
H         3.06620052886465   -0.86326168987711    0.67971514396311
H         3.30345958462540    0.84844774337304    1.05045528212833
H        -0.31009404372748    3.12057228814638    0.73372375366136
H         0.63618495301375    2.18119689099122   -0.42670545507206
H         1.44068810222689    2.98481099114872    0.91839206139582
C        -6.04254903348196    4.87024399594462    1.16301227063084
C        -6.34087740802275    4.17600552895873   -0.16184718766487
O        -6.59855258586644    2.78598773296007    0.00166773737752
C        -5.59979195418625    1.91183431739118    0.19317785637435
C        -4.22087515088206    2.22704967345392    0.17203654568511
C        -3.27847484223851    1.25839504398903    0.37554834489028
C        -3.63983859820895   -0.08364958324463    0.59924749834366
N        -2.69407727170615   -1.02972725976560    0.79446598458614
C        -3.05771882502243   -2.32125434368595    0.81794673752199
C        -1.96606232674467   -3.24049824694002    0.83095563939887
N        -0.77223333703970   -2.73950976717907    0.84486314185476
C         0.34901385604071   -3.56801110648668    0.79241884128443
C         1.33294893234264   -3.30676306327190   -0.15873495846483
C         2.42366204451782   -4.13917580419602   -0.30922816055801
C         2.56494601308733   -5.26590032208775    0.50522174775005
O         3.57506092756795   -6.15039524970350    0.44041053928059
C         4.58098239537511   -5.98230018415639   -0.54395536406497
C         1.60037317734379   -5.51034030507888    1.48929268899480
C         0.50235773647173   -4.68209791664398    1.64096533446350
C        -0.41968546301174   -4.90818736891828    2.78866131280715
O        -0.95267258766597   -4.01539313231824    3.41194527808569
O        -0.56115207619817   -6.19710902730615    3.06427836197622
C        -1.36543828514228   -6.55211920999798    4.18994764039088
C        -4.40966426199270   -2.72709468540037    0.77514965278753
C        -5.38868186761978   -1.78297506518632    0.69165037268375
C        -5.02874511579998   -0.41921606074446    0.56744820022613
C        -5.97540327771243    0.59073054824282    0.38658181986093
H        -5.91527263768599    5.93498356188729    0.99085189555423
H        -5.13885114861811    4.47497980924207    1.61978052358243
H        -6.87039222143545    4.72228013707479    1.85184835105134
H        -5.53526528388677    4.33516618420500   -0.88657935797435
H        -7.26857781623593    4.56710350753146   -0.58620054750417
H        -3.89777297012321    3.23632902030843   -0.02404867841487
H        -2.22882064453998    1.49754719003900    0.31121586286022
H        -2.13729864405743   -4.30857511425511    0.75684379086763
H         1.20875916887628   -2.45130866677399   -0.80518595079637
H         3.15338321079692   -3.90880908584578   -1.06794509711648
H         4.15592864469677   -5.99954047259954   -1.55056229929322
H         5.25129028362399   -6.82988664673492   -0.41843327830209
H         5.13469081634342   -5.05317718712722   -0.38867484228511
H         1.73282850920124   -6.35801941707289    2.14123448511681
H        -1.71365829124789   -7.56533464858315    4.00876508320514
H        -0.76034164086528   -6.51602938662546    5.09701285702794
H        -2.20352998612418   -5.86087237182563    4.28874706660312
H        -4.63787603696472   -3.77929918185363    0.81726541162481
H        -6.43252777751043   -2.05498468090631    0.68614381977686
H        -7.02479470458467    0.34405124861278    0.36873101189371
Cl       -0.54551978247290   -0.50795701677026   -1.34566472594925
