66
 energy: -116.326997661836 gnorm: 0.000332837318 xtb: 6.4.1 (afa7bdf)
Ir       -0.45858263738683   -0.80871588007445    1.60017211108873
C        -1.89589218841911    0.96325696220467    4.22541628298948
C        -0.69333280487265    0.38839096798763    3.56860649128564
C        -0.19977851126413   -0.93980340878793    3.81600043494341
C        -0.78588016717575   -1.90024597940497    4.79361707150302
C         1.09573919153715   -1.05146621163628    3.20523405271983
C         2.09925863977286   -2.11283329882262    3.48857645441594
C         1.34020667697518    0.14775928447108    2.46678201897907
C         2.63722904293641    0.50651372194095    1.83092901754263
C         0.22442781990377    1.04990682189220    2.70224785974389
C         0.22722281528315    2.48046114875186    2.36031096440052
C         0.11173960490251    3.42604874499517    3.37772867979236
C         0.15938502194799    4.76845298339626    3.05428363006602
F         0.05097175871901    5.67639728269927    4.04675992703316
C         0.31716652774320    5.21899403142063    1.75631583040641
C         0.42930189208818    4.25491862958255    0.76995549732823
F         0.58422486751636    4.65718178365860   -0.50892437469594
C         0.39092236329919    2.90172012410284    1.04298784628135
H        -2.12932864684569    1.94760207407151    3.83333142975868
H        -1.70087740794844    1.04404048288315    5.29548333854232
H        -2.76175405236113    0.31633868237803    4.10279334494048
H        -0.48658822808813   -2.91941506136796    4.56688830151706
H        -0.42646987619087   -1.65592100443395    5.79373309700921
H        -1.87020925379433   -1.83875085733756    4.80117308783220
H         2.61759234449906   -1.84921152401603    4.41170404632147
H         1.63214667524331   -3.08337090892983    3.62872404548924
H         2.83655786299109   -2.18259595580692    2.69493657363176
H         2.98560827860708   -0.28660246379230    1.17331292610770
H         2.55165972059826    1.42353382914720    1.25633107376191
H         3.38762616303421    0.64844896820094    2.60907302483719
H         0.00984802812545    3.13299968550652    4.40946455752094
H         0.35068466617887    6.27012630054623    1.52390786929349
H         0.45563079337111    2.18880818451629    0.23601368150202
C         2.58555657788099   -7.70966945537926    2.40973630964258
O         1.49727976721835   -6.80293855177037    2.35175616651667
C         1.63978561760800   -5.65070479322051    1.67679784987814
C         2.79802469995650   -5.25385906886318    1.00825287764099
C         2.80506212882253   -4.02856293358447    0.36432064561573
F         3.93140109359456   -3.65299876378741   -0.27643269885813
C         1.72639322209399   -3.16883266741999    0.36122202197102
C         0.56823444626644   -3.58371834479789    1.01858934714400
N        -0.55223312495310   -2.73674702192923    1.00204322824789
C        -1.70183457159077   -3.20250964757459    0.63526805083740
C        -2.78971850337494   -2.28239171724886    0.53605880843027
C        -4.04240119310411   -2.61243609301942    0.02084571530675
C        -4.99151436887612   -1.62904733251239   -0.16646709834956
C        -4.65996054023971   -0.30473275131743    0.13838953784898
O        -5.43301595185211    0.76044306496125   -0.00997450526091
C        -6.75590580472125    0.60955460033293   -0.50854732869476
C        -3.37083338585296   -0.05994223483553    0.66596554305176
Br       -2.94392359844510    1.73818157854612    1.02302661937484
N        -2.47916853528589   -1.00520037635357    0.89328596600044
C         0.52155385208088   -4.80873288484490    1.66775655903201
H         3.45089411006672   -7.25636622023592    2.89925189243653
H         2.23020129802312   -8.54940549455914    3.00267008803205
H         2.86323401896577   -8.05942023213863    1.41246846552413
H         3.68431362280304   -5.86440226248313    0.97251320289384
H         1.75896742066217   -2.22856114195601   -0.16366769215991
H        -1.82358656099889   -4.23612510666746    0.33221443424075
H        -4.25617646022047   -3.63666384658801   -0.23838942922120
H        -5.96244361351844   -1.87788631994102   -0.56266402266198
H        -6.74854277639049    0.19301584928046   -1.51780696203367
H        -7.16811111671803    1.61571822064176   -0.53132071802131
H        -7.35299894275399   -0.01773227832246    0.15623239248456
H        -0.36307933751726   -5.12588016855751    2.19572584714657
Cl       -0.03966747053051   -0.20772174378715   -0.67145230791515
