67
 energy: -108.759212922937 gnorm: 0.000487817022 xtb: 6.4.1 (afa7bdf)
Ir       -0.53561560255208   -0.96096751516241    1.29152350283613
C        -1.99658867308004    1.04415344369576    3.66971832136370
C        -0.78914483347770    0.36700209287594    3.11989913700941
C        -0.40417805438063   -0.96686084569071    3.51965352618558
C        -1.11763826587908   -1.79257482389524    4.53301822281844
C         0.91647633877157   -1.22197726434064    3.01454974886723
C         1.77768506065970   -2.36831542971840    3.41407845627456
C         1.29469507978656   -0.10772051156302    2.20899007589424
C         2.63456942188105    0.11823398548408    1.59755133510459
C         0.23208761513277    0.89235644735400    2.28038654042151
C         0.40858821889976    2.30049598845336    1.77968081558053
C        -0.72446359630631    2.82207604953476    0.88867680082203
C        -0.37626674709334    4.21764697083666    0.37713439609227
C        -0.14524514386629    5.17448206803487    1.54428227805853
C         0.96387376631554    4.65132635500791    2.45306601669825
C         0.62601910979873    3.25438480114971    2.96623188988180
H        -2.86690171807544    0.39204702488081    3.63313495427146
H        -2.22412204803054    1.96884191475969    3.15208001653757
H        -1.80850068988920    1.27762926045007    4.71861308740039
H        -0.85991137871096   -2.84307525383920    4.43623072536159
H        -0.82218816341469   -1.46261113755671    5.52971661183056
H        -2.19488318316184   -1.68107148249423    4.44924982409048
H         1.19457228013850   -3.27321912262171    3.56088111209604
H         2.54895080281998   -2.56576679850413    2.67634573743648
H         2.26338538533812   -2.12074101004841    4.35867135481892
H         3.22085262521876   -0.79520178844760    1.59219052772563
H         2.53857944750805    0.47986094280164    0.57589181550960
H         3.17190425434252    0.87015846332594    2.17540553420897
H         1.31649084673319    2.31778010282349    1.16967690009979
H        -1.66168265068752    2.88554020245251    1.44229779471286
H        -0.86225843033256    2.14297266386945    0.04582813028908
H        -1.18647848766544    4.58943255268088   -0.25334680953856
H         0.52539140814431    4.16905473047767   -0.23732667977906
H        -1.06903782916120    5.27889801613259    2.11831605464054
H         0.12119267050547    6.16295725400892    1.16522829312107
H         1.10188358983388    5.32752382493716    3.29888965793620
H         1.90242699200289    4.62103264598089    1.89517005173515
H        -0.27710935246814    3.30351276183684    3.57458918064522
H         1.43730521072584    2.88365022284434    3.59501836807292
F         3.50664424238886   -6.42653227013540    0.76616369529752
C         2.48565224025064   -5.55077785047247    0.72430383991266
C         2.72151404727232   -4.26490719841362    0.26287109724273
C         1.67474731138297   -3.36402722773392    0.23267557462498
C         0.39955885729474   -3.76129561042324    0.63797029441386
N        -0.65762031863527   -2.84277926222201    0.57107470822233
C        -1.76641390884565   -3.18587340438750   -0.01328663278363
C        -2.79792450901816   -2.19824961376326   -0.06985133488196
C        -4.00818672015570   -2.35085688002919   -0.75447188041903
C        -4.90443410479184   -1.30378203157137   -0.77835671994149
C        -4.55564105847793   -0.12138468356841   -0.11680084137968
C        -5.50422354874140    1.04836144571113   -0.13680200103587
F        -5.60513775539682    1.59064872929679   -1.36182517545266
F        -6.74769664657912    0.69095961315396    0.22257452505939
F        -5.13173828046612    2.03239353937107    0.69137903387936
C        -3.33958326122971   -0.03114615256020    0.53986284098706
N        -2.48270489610588   -1.04519952988548    0.57656813185918
C         0.18265473953227   -5.06325486654426    1.09375097522332
C         1.23178517217632   -5.96026941219901    1.14932769680988
H         3.70976708089708   -3.98854939531341   -0.06745916561476
H         1.81754084401672   -2.36288693445566   -0.14400082143854
H        -1.88813186348083   -4.15506339460702   -0.48178380731160
H        -4.22192912459780   -3.27671803750138   -1.26343093643389
H        -5.84959436260235   -1.38325801014098   -1.29296615366644
H        -3.05001003512329    0.87785353181638    1.04617776343637
H        -0.79816548871239   -5.35887442760623    1.43153662712391
H         1.08992221161992   -6.96594929254636    1.51017115808033
Cl        0.00530285980062   -0.29137017607692   -0.93187679895310
