66
 energy: -116.327980542413 gnorm: 0.000728904726 xtb: 6.4.1 (afa7bdf)
Ir       -0.45619482889617   -0.86632401583246    1.48318580427442
C        -1.97109512676888    0.96295434810151    3.92234574818480
C        -0.72324404769149    0.37531329826068    3.36301224562670
C        -0.18952199414359   -0.91331618931181    3.70170149083616
C        -0.75995596048262   -1.84225033660145    4.71658194693428
C         1.12175091505329   -1.01980267447178    3.11330578801290
C         2.12064870761614   -2.07035677388559    3.44991087503512
C         1.35027651451296    0.14162720413755    2.32454494584913
C         2.63387143990597    0.53126482454461    1.67987736972286
C         0.19060220758045    1.01345475346395    2.47013454559006
C         0.16141668822756    2.43163236216859    2.06960462446058
C         0.07431518291305    3.40773485182609    3.06098812048630
C         0.10696562377447    4.74039488422694    2.69546766154407
F         0.02882308515006    5.67749213148263    3.66195372451789
C         0.21821744297926    5.14989570849077    1.37872379779028
C         0.29392190932651    4.15565176401733    0.41876286481790
F         0.39358942264490    4.51724906055036   -0.87639573399066
C         0.26672364837944    2.81031207508107    0.73424188551821
H        -2.22473323643956    1.89000642017923    3.41596895063749
H        -1.81433485894933    1.17905548782712    4.97954238140156
H        -2.80370215800540    0.26623864807549    3.85346642786543
H        -0.47804349431074   -2.87039519055957    4.50750945892479
H        -0.36918144872452   -1.57935050010000    5.70009306601350
H        -1.84282264419966   -1.76885952602157    4.75134887100489
H         2.61083589257490   -1.79304259762896    4.38401834165976
H         1.64822092283008   -3.03880810915735    3.59018225118156
H         2.88236031624549   -2.15609871530907    2.68158694601961
H         3.20016038962261   -0.34261011027754    1.36923434974254
H         2.46095152904484    1.16431341247244    0.81431838270807
H         3.23559681813122    1.09181762826499    2.39669791649738
H         0.00865247892853    3.14472440170855    4.10398275029822
H         0.24673865626442    6.19346853150504    1.11307343489167
H         0.30833290915645    2.07104568729778   -0.05072604024448
C         2.09935225736646   -8.02296637299720    2.23899345209546
O         1.07749701307348   -7.04554913917199    2.14065575501630
C         1.35567901719790   -5.85997529437781    1.57507416465675
C         2.60344433377367   -5.48418832666328    1.07699591406045
C         2.74385809099536   -4.22177475569249    0.52716195072436
F         3.95526638948663   -3.86575414255373    0.05229908801262
C         1.71450112197747   -3.30622700353491    0.45812303241157
C         0.46803419775404   -3.69852631441460    0.94662994236264
N        -0.60158453425325   -2.79371322540512    0.86921587163035
C        -1.73278160260388   -3.16588489900977    0.36267131331746
C        -2.76289677751077   -2.17656279143785    0.29101981050074
C        -4.00676338286613   -2.37334884621369   -0.31768112007736
C        -4.88660709708005   -1.31953538893897   -0.38560614570311
Br       -6.58646626777250   -1.49114327992874   -1.21170989630103
C        -4.52956866771526   -0.06349515999670    0.15892314944166
O        -5.42324945472573    0.90739282105804    0.06349524246933
C        -5.13126150548115    2.20538945504699    0.56276142750239
C        -3.26947045710716    0.03836138917015    0.75765273414713
N        -2.41988957299454   -0.98107576886553    0.82454942479461
C         0.28780026005220   -4.95854092726421    1.49823031761247
H         1.63356597949921   -8.88060689972346    2.71935677021341
H         2.46553617954176   -8.31325879426363    1.25106335976563
H         2.92993598986146   -7.66654844895754    2.85297981415329
H         3.45836567541744   -6.13844175396509    1.10212103909128
H         1.85403496693916   -2.33906626740867    0.00409038423276
H        -1.88034857194628   -4.16319776841963   -0.03448667884410
H        -4.25949884269474   -3.33285492830417   -0.73883602091145
H        -6.00274856331039    2.80810784530985    0.31702201073554
H        -4.99530774543514    2.18370798843344    1.64569468084131
H        -4.24875371632438    2.62157260294063    0.07401148463293
H        -2.93549260634787    0.97220732958336    1.18313274389840
H        -0.66622438915783   -5.26024626329330    1.89867601558610
Cl        0.00825338014454   -0.35389541522244   -0.80057622585207
