74
 energy: -121.763563154739 gnorm: 0.000275123963 xtb: 6.4.1 (afa7bdf)
Ir       -0.29602861543136   -0.70772240428607    1.61322125647734
C        -1.53610167598170    0.90806310355359    4.39087797528643
C        -0.37897120974675    0.34677898773676    3.64523686986240
C         0.08957860567153   -0.99993122666339    3.78729524834102
C         1.33615027513102   -1.11227673793907    3.07359852624538
C         2.32276477228526   -2.21992060041143    3.19855229873348
C         1.59599644812347    0.14135968070521    2.43566562405688
C         0.52327278403643    1.04999639721412    2.77886730543688
C         0.55588526562797    2.49443898808473    2.52364096201896
C         0.43765354229485    3.39437727318494    3.58198842808575
C         0.51960644957210    4.75342661216068    3.35540660698227
C         0.72568391198322    5.25519657127598    2.07165751253549
C         0.81422185701187    6.70331057890985    1.83286917423185
C         1.77696428766712    7.22195164644100    0.96920064138902
C         1.86286506228641    8.58419511511924    0.74759418364397
C         0.98291025712592    9.44922885196529    1.37754424441314
C         0.01878527822747    8.94373034770568    2.23460276509362
C        -0.06254215970426    7.58264609797661    2.46495812375975
C         0.84692926251965    4.35127109920045    1.01731993786776
C         0.76283709661810    2.99226670452574    1.23757879569706
C         2.87291286514839    0.50045594989674    1.76187072196927
C        -0.46939402374712   -2.00690078174492    4.73341121115588
H        -1.27806487697148    0.95170318408502    5.44990359451685
H        -2.41321637144812    0.27137937212101    4.29770131049441
H        -1.78050402689982    1.90773841120294    4.04717968318667
H         2.97822170334889   -1.99819056754538    4.04203519706733
H         2.93887629457605   -2.30138563253577    2.30763942653817
H         1.83983031035850   -3.17378579569020    3.38893041751894
H         0.31618422531764    3.02907678845064    4.58955140128132
H         0.44668730712613    5.43735390169457    4.18750541517244
H         2.47576392286176    6.55542466751108    0.48482759973052
H         2.61992251977479    8.97406303256519    0.08241571443378
H         1.04855571124801   10.51285419962832    1.20089803667503
H        -0.67232397227915    9.61453979597620    2.72421223968532
H        -0.82601999524366    7.19418725585942    3.12277833070279
H         0.98834493352383    4.72098716197443    0.01290400766997
H         0.82207612627484    2.30813042040986    0.40485646760838
H         3.04111476889872   -0.11197444858939    0.87861524620956
H         2.86907931417244    1.54423304319508    1.46209525384547
H         3.69995713018349    0.33013117935272    2.45092160815413
H        -1.55275166917778   -1.94105016406045    4.78251944839380
H        -0.18446081207188   -3.01568008632137    4.44841111786996
H        -0.07567349896418   -1.81340011181281    5.73192966518160
C        -6.48302247478473    1.43373245607632   -0.28051477405473
O        -5.14764755147752    1.42517157365032    0.20752742893505
C        -4.47463102922135    0.28709233597401    0.26772442341846
C        -4.93130364399159   -0.97543968661459   -0.12346340321538
C        -4.07678496142018   -2.05167764805332   -0.01240527288921
C        -2.79488593605468   -1.87491499877901    0.50821338258314
C        -1.81987002441436   -2.91524147439453    0.54583586061952
N        -0.62435233751155   -2.62255570266675    0.94415351933468
C         0.36936817721111   -3.60737525180298    0.91190908868651
C         1.55736960990063   -3.35339857260957    0.22227230421779
C         2.53095708955833   -4.32721468284609    0.15023259106919
C         2.32460863234106   -5.55032570707001    0.78496294168841
N         3.33475145022649   -6.56642206005457    0.70801577133283
O         4.36082296611626   -6.30937512115688    0.10573664579127
O         3.11177226997198   -7.63481220624974    1.24770302539936
C         1.15098884085734   -5.80592809180167    1.48958357832806
C         0.17166113464020   -4.83620678820764    1.54842224054115
N        -2.35637942411722   -0.65836632655574    0.93726877651545
C        -3.16129793538644    0.37657063053863    0.78878268448095
Br       -2.57667467091443    2.10046195611641    1.25847589113963
H        -7.12801435058243    0.80637113461656    0.33778892356544
H        -6.52059259321453    1.10503498636011   -1.32099475123696
H        -6.80524018091111    2.47030662738612   -0.21253489165690
H        -5.92316449497812   -1.10576886394944   -0.52422749269831
H        -4.38728313859785   -3.03195575268204   -0.33552024689154
H        -2.06601150517834   -3.90344039033019    0.17247352730256
H         1.68090412868876   -2.40258443303229   -0.27315199453450
H         3.44929459046459   -4.16290978386843   -0.39180321740595
H         1.02354948785205   -6.76213146780222    1.97313742550921
H        -0.74105670837377   -5.01752981216373    2.09430897076060
Cl        0.15945020195258   -0.14130774028742   -0.65674655185909
