61
 energy: -94.936238958029 gnorm: 0.000418857066 xtb: 6.4.1 (afa7bdf)
Ir       -0.73444826282209   -0.91215519256294    1.38189790735630
C        -2.24352614237313    1.16916305892705    3.71150742075100
C        -1.04728731611368    0.43312420942979    3.21328813644211
C        -0.71413000108545   -0.91728904424296    3.60094228096062
C        -1.49238816151039   -1.74233730207296    4.56890213780644
C         0.63491735836001   -1.18330967195813    3.16946749357377
C         1.46192438754959   -2.33893687353116    3.61252547718684
C         1.07019490782465   -0.07338170400820    2.39728587259807
C         2.43590803964958    0.16273774276842    1.85135297793813
C         0.02482804174058    0.93866286174086    2.43188548898068
C         0.22023904864026    2.33412359022006    1.94010526250671
H        -2.11804090538284    1.34843678729327    4.77980973825214
H        -3.15369660770130    0.58950273975261    3.57615279665532
H        -2.36269753603919    2.12618760517196    3.21461499863604
H        -2.56037238798175   -1.58255260044288    4.44894116858450
H        -1.27550165276765   -2.79985244425688    4.44667216301637
H        -1.21895954932803   -1.45663118454840    5.58543845136510
H         0.86783364738634   -3.24340218648711    3.71142607408788
H         2.28028573473998   -2.53001844134703    2.92469877722253
H         1.88573323188075   -2.10338450363437    4.58939781661118
H         2.38115883548880    0.63812400518724    0.87447736659259
H         2.99332529389528   -0.76477866941787    1.75824417416419
H         2.98132660824321    0.82855064011662    2.52083207139080
H        -0.67288577090326    2.93694624829502    2.07577929002297
H         0.49263285944188    2.33744885138886    0.88573674822479
H         1.03722547746576    2.79576069780485    2.49471992572789
C         2.30704255129752   -7.80875978622728    2.27829810061035
O         1.20513149455838   -6.93068417347672    2.12524463923654
C         1.38754768105832   -5.74961889662526    1.50937759898984
C         2.59417540852338   -5.30832325258874    0.96756948096881
C         2.63584209064897   -4.05648974143139    0.37692593613051
F         3.81118882671175   -3.63711618834627   -0.13892545534101
C         1.54720651933485   -3.21336511974163    0.30891835483346
C         0.34083184061785   -3.67197243077964    0.83999721587067
N        -0.78208822713441   -2.83665240453794    0.77823244445096
C        -1.92280692291053   -3.30306578531771    0.37897888316179
C        -3.00284025660561   -2.36994033536364    0.28947300796604
C        -4.29332605969714   -2.72632233241723   -0.15038852118558
C        -5.25024868104757   -1.75782086942952   -0.25718886270553
C        -4.90336543041938   -0.41217434879362   -0.00759187620181
C        -5.81753565833328    0.64573734746737   -0.17920964485450
C        -5.42621277275000    1.94460416300932    0.00478640840315
C        -4.09792810251514    2.23640415555838    0.35370517391320
C        -3.19197535108871    1.23064176199428    0.55803218265542
C        -3.57012970536502   -0.11654692151629    0.40600367055048
N        -2.67244648728655   -1.11084211388020    0.62000631359054
C         0.26017498507727   -4.92497192918198    1.43159577843142
H         1.91642625417487   -8.67047706776102    2.81514895465592
H         3.10339726242469   -7.34303481697077    2.86393317643628
H         2.69691557679809   -8.12984761439857    1.30933367627422
H         3.49164990436898   -5.90291310361333    0.99063288778460
H         1.61321273990781   -2.24921066117981   -0.16755390920465
H        -2.03992507485157   -4.33122051143652    0.05722825202746
H        -4.50008068048942   -3.75792768519134   -0.38302097398200
H        -6.25857804100364   -1.99733300817141   -0.55732867859788
H        -6.82761278469544    0.40971385958781   -0.47698091709967
H        -6.12859358894645    2.75117432737863   -0.13609073945809
H        -3.79267911054066    3.26643781663000    0.45236723095966
H        -2.16038228626351    1.44674338578993    0.78294329869122
H        -0.66055217208974   -5.27636299125113    1.86846369800823
Cl       -0.09543691978202   -0.21084494736343   -0.81248480262492
