64
 energy: -96.482777865732 gnorm: 0.000846280132 xtb: 6.4.1 (afa7bdf)
Ir       -0.50528755064603   -0.31165167559192    1.39546723282698
C        -1.81481090674733    2.03363321252691    3.75266193246329
C        -0.73725960991305    1.16870441757031    3.20203010287063
C        -0.58097073355778   -0.21485502910578    3.62557646950091
C        -1.49212472051348   -0.90586498176986    4.58081798140258
C         0.72231668422212   -0.65320529851097    3.24805118321129
C         1.41562980648953   -1.86703973966665    3.75789199567193
C         1.29757854274710    0.37748429331485    2.42578771865453
C         2.71119642664006    0.41197280628475    1.95494871131463
C         0.40598494954337    1.53554227034430    2.45683881732704
C         0.84326584456789    2.89888540894972    2.00057621041129
C        -0.11854642744965    3.61896332722309    1.05068826225347
C         0.49258855965963    4.94467661024671    0.60634135952394
C         0.79193798256024    5.82890396722986    1.81471360869917
C         1.72938386427296    5.11127630630604    2.78193585038197
C         1.12608276018284    3.78279829633595    3.22854445631296
H        -2.77547751280491    1.52529105420253    3.74937280043774
H        -1.91213500298778    2.96767370849555    3.21272108706843
H        -1.56437712293808    2.25436034875534    4.79202089532043
H        -1.33982955133123   -1.98098729911719    4.56423863296993
H        -1.28531770477254   -0.54839146997870    5.59021653031667
H        -2.53431664882067   -0.69192202442006    4.35877361878550
H         0.71912007252003   -2.67904313906429    3.94575032917581
H         2.18515603524158   -2.21179569737046    3.07404408292763
H         1.89433474854956   -1.60793271132530    4.70331902086054
H         3.13731362859838   -0.58591222900254    1.92238099374603
H         2.78362893488877    0.85704790683514    0.96570068576844
H         3.30080404003498    1.01750794252334    2.64387964608048
H         1.78554268852726    2.77694502779730    1.45818513006072
H        -1.07273993218494    3.81865167865554    1.53750642143628
H        -0.30634214179441    2.98737834969845    0.18187072014402
H        -0.19735970192064    5.45728139067129   -0.06697588622992
H         1.41699019305145    4.75795859726074    0.05393467905639
H        -0.14233535982526    6.07342986096606    2.32559127748788
H         1.24520246486607    6.76603102836779    1.48566932151561
H         1.91480120377246    5.73966608871589    3.65520504204993
H         2.68847845532051    4.93400631759268    2.29028993980983
H         0.19868858983012    3.97389842334578    3.76701416334138
H         1.81272765329814    3.27021128632457    3.90456076532237
F        -3.89681021237801   -3.77092136771202   -0.71630390245741
C        -3.83103709440197   -2.48688895185458   -0.35131540551404
C        -4.90722055807401   -1.64403574311084   -0.55148340356217
C        -4.74861815108358   -0.31320374883437   -0.19597737226819
C        -3.54632528863594    0.09741247264331    0.36705884917285
Br       -3.33056843643647    1.91273228767709    0.77162563648070
N        -2.53185367964937   -0.72240114368582    0.62186426439811
C        -2.64513346462851   -2.01297720560384    0.22536993061332
C        -1.45842203205979   -2.79801416614486    0.34041415114193
N        -0.37719954111055   -2.20409861338448    0.73879698922510
C         0.82269369618249   -2.92875297272005    0.76000662756467
C         1.96182245529862   -2.36744232643452    0.18277026921952
C         3.14415883865321   -3.08388674022768    0.16487922139296
C         3.20654690740299   -4.34695230811233    0.73577353942457
C         2.07572750403307   -4.90143800438686    1.31778211173117
C         0.88223094873133   -4.20424442463819    1.32505650998177
H        -5.82246029931291   -2.01225079335369   -0.98691078986558
H        -5.53965931222347    0.40307744735982   -0.35015571769802
H        -1.45938342307496   -3.83224999747042    0.01521486853429
H         1.88945217296526   -1.39506121615395   -0.27814413671110
H         4.01969093894965   -2.65496575917310   -0.29706943084427
H         4.13381574141023   -4.89805228348254    0.72711205284676
H         2.12351609232602   -5.88132204501515    1.76637697166655
H         0.00498107711192   -4.62600723650873    1.79134460128937
Cl       -0.14296138113096    0.43407420876219   -0.83473322604258
