72
 energy: -102.728296906613 gnorm: 0.000455192983 xtb: 6.4.1 (afa7bdf)
Ir        1.06952470159835    0.04096515927052    1.60327056059686
C        -1.83082663756190    1.79653559651785    3.01279240080835
C        -0.47817734466174    1.20691359321704    3.16221730994440
C        -0.27690839071916   -0.22829332193486    3.40839277255018
C        -1.39713345062619   -1.18452933734775    3.63760278774491
C         1.08495037656926   -0.43363156089945    3.75164451343061
C         1.67479135300632   -1.60085791639723    4.47769684986032
C         1.75315625318344    0.84823735980470    3.55840529108372
C         3.16636341594500    1.11086671530172    3.91920876968317
C         0.75402258063031    1.85433669113603    3.25397244427359
C         1.05762700766521    3.32226247100877    3.17172719760269
C         0.72808594466467    3.94437382046839    1.80861426499996
C         1.16612067414626    5.40585496963766    1.78502898170873
C         0.48402328573959    6.19115299156931    2.90276596641047
C         0.78494809753718    5.56293558770840    4.26146382225106
C         0.34429241661745    4.10191520963816    4.28717360924914
H        -2.52491143336340    1.08379916797063    2.57575818217307
H        -1.82299556337563    2.70185670313220    2.41298891319489
H        -2.21159209504680    2.05142812189704    4.00406000401296
H        -1.02441998005656   -2.18880296260723    3.81091459355961
H        -1.95690060602702   -0.86528034047069    4.51714606794161
H        -2.08098375477038   -1.21060865064581    2.79080341216886
H         1.06140935885092   -2.48815694557140    4.36163906821495
H         2.67876607352588   -1.82341938227083    4.12880285161155
H         1.72735300259412   -1.35724857885042    5.53882668013937
H         3.75853227502348    0.20066642925621    3.87719851717682
H         3.61865350244247    1.86025778647730    3.27288540869184
H         3.19929843646778    1.48972603081337    4.94359383488444
H         2.13431949590465    3.44873917542247    3.32707960464571
H        -0.34428437756760    3.89524831029113    1.61267262595643
H         1.24183774965805    3.39370535476747    1.01834042063009
H         0.92005124497983    5.84691731510557    0.81664417830205
H         2.25050430125665    5.46540576316246    1.90821615011906
H        -0.59609173208396    6.19831769595881    2.73536227000067
H         0.82683186335187    7.22763948423127    2.88929087903170
H         0.26648607279778    6.11509069241123    5.04789459799869
H         1.85725400207300    5.62857418047908    4.46119154800342
H        -0.73568143702873    4.05541705619454    4.14646723050494
H         0.58015219885039    3.65934306752799    5.25728677722093
C        -4.63193865905009   -2.49136628322941    1.65248826066975
S        -5.26437679953217   -0.90194969010094    1.03109153566231
C        -3.80438958435891   -0.15453798289815    0.45992161561418
N        -2.65222859277511   -0.77165507823156    0.66451915087280
C        -1.52082034910128   -0.22950630746671    0.22027417839207
C        -0.32315265054703   -1.06925710565010    0.43169256062335
N        -0.22399495415478   -2.19292254788110   -0.03941458190981
C         0.52363364881833   -3.31524000714707   -0.01119953415823
C         0.80813422787735   -3.97341810990651   -1.21590095016386
C         1.54003149522212   -5.13947483950578   -1.20051881784717
C         1.98657669819172   -5.69558516255112    0.00038542844195
C         2.79142145683502   -6.94962406667642    0.00894736772128
C         1.67863630225487   -5.04120425046094    1.19596761529544
C         0.95718111695268   -3.87006825865533    1.20248806661703
C        -1.47865428467025    0.99158404527582   -0.44486156786869
C        -2.67917764954996    1.65103430050482   -0.67140513000147
C        -3.86764990829141    1.09053141665595   -0.21710324583459
C        -5.10097833101949    1.74259544743982   -0.42780293410957
N        -6.09466261945193    2.28791326478611   -0.60483918860927
H        -3.80322070760206   -2.79983755700314    1.02536136303264
H        -5.45811533588441   -3.19140546592022    1.58280549781990
H        -4.32247890074748   -2.37752127788122    2.68562431154232
H         2.03671999476817   -1.08128309889274    1.27401909131028
H         0.46184536593489   -3.54940504021901   -2.14481470117937
H         1.76626755918618   -5.63767109245866   -2.13108788404903
H         3.85291725223283   -6.69835408808777   -0.00199974064741
H         2.59873670612126   -7.53328214915445    0.90555572822092
H         2.58425932124231   -7.55605463681454   -0.86875911619677
H         2.01653392712632   -5.46436887984289    2.12949266785794
H         0.71557141770471   -3.36167827078864    2.12106920926380
H        -0.54722102556193    1.39727381377383   -0.80335674312060
H        -2.69869815178806    2.59329393779136   -1.19805659557056
Cl        1.93412113144976    1.09371451780783   -0.19647227606617
