72
 energy: -122.173110570663 gnorm: 0.000215478667 xtb: 6.4.1 (afa7bdf)
Ir       -0.28243257302946   -0.93569748424906    1.34045423460440
C        -1.66571502355107    0.98682766444950    3.79432381138068
C        -0.43999204829574    0.38910502628792    3.19622527657452
C         0.08551744331515   -0.90155757542561    3.54030751115361
C        -0.45035209317132   -1.79303792590589    4.60852596465556
C         1.36791259349784   -1.04603738861407    2.89979909731173
C         2.36919276483369   -2.10142792615698    3.21924959463365
C         1.58041113750223    0.09161759388253    2.07527366814709
C         2.83164236430244    0.42896054096821    1.33805060687257
C         0.45215403461522    0.99302353986923    2.25963375643527
C         0.44170545725541    2.39132071349506    1.80770420773609
C         0.20423758507168    3.41383305907844    2.72616739818401
C         0.24993926097779    4.72651340229020    2.29772427594846
F         0.02152470681513    5.70775509966550    3.19595839380807
C         0.52120542465212    5.07625923103973    0.98712170145698
C         0.75229576476063    4.03954821119557    0.09925427686495
F         1.01807379055978    4.34276479034062   -1.18769184085796
C         0.72044606138764    2.71204927615293    0.47897769353685
H        -1.99873352504490    1.85594921300116    3.23497326999062
H        -1.44870797733999    1.28781390562139    4.81984486229955
H        -2.47554659914137    0.26180665305470    3.83247715212284
H        -0.16883559930882   -2.82687024332252    4.42954717725640
H        -0.03349569278832   -1.49107747099356    5.56980878702228
H        -1.53240446580759   -1.72324823304677    4.67258630614523
H         2.93578311980362   -1.78506640829784    4.09600039910185
H         1.88982939798881   -3.04822745696138    3.45016639081460
H         3.06016391212616   -2.25328867711883    2.39642312081837
H         2.71897023384127    0.24391914227047    0.27053102906428
H         3.06087142217667    1.48503075361366    1.46563766449157
H         3.66335517970357   -0.16478427544048    1.70529813022972
H         0.01623257474586    3.20441894836372    3.76576712974644
H         0.55485441590155    6.10604670621776    0.67310543170816
H         0.88095909149195    1.93979550259929   -0.25706847766536
C         4.93919398107894   -6.25301925542468    0.33440723233410
O         3.68171978886595   -6.53413929416020    0.92030545885115
C         2.72134241170501   -5.59801866877737    0.89714817641908
C         2.83446841295064   -4.33582732557041    0.32415286645667
C         1.78500109277520   -3.43701963397135    0.36873804647558
C         0.57754064963247   -3.80132975577639    0.95874720589460
N        -0.48690614934958   -2.90846522847857    0.93976748593799
C        -1.70231559015346   -3.33084986448501    0.74553538911571
C        -2.73530165246398   -2.34974852658983    0.68719511260376
C        -4.08999332236824   -2.67131965647099    0.45724239253353
C        -5.00911115605704   -1.66691775143273    0.37504544240854
C        -4.57563181140830   -0.32271210834150    0.45171965466089
C        -5.46738510922734    0.75595211524947    0.31456782067060
C        -4.99911927758014    2.04538873543498    0.33797660730564
Cl       -6.09019671388395    3.37741325131932    0.16762518883494
C        -3.62432380911148    2.30392956995969    0.47599372119948
C        -2.74298827164928    1.27077963024462    0.63553601522284
C        -3.18714687404696   -0.06595526205039    0.65296974531776
N        -2.31086786809360   -1.08344899245819    0.83282228233395
C         0.44475125285854   -5.07300117918788    1.54179472683771
C         1.49792028532400   -5.96423659186765    1.53147147407021
O         1.48350190435549   -7.19417710176303    2.08546947309171
C         0.30267792004001   -7.64407733361014    2.72194142064472
H         5.43036474628071   -5.41530705634455    0.83583856526436
H         5.53044937253759   -7.15583726832815    0.47234393368923
H         4.84120918166925   -6.04191541756425   -0.73352985182397
H         3.74748046251124   -4.04632989912844   -0.16872485957650
H         1.87132811355096   -2.47075776274147   -0.10281496142015
H        -1.91780187490228   -4.37444565837068    0.55488000395321
H        -4.37204400085791   -3.70684829498731    0.36160449121588
H        -6.05766008341391   -1.87623889156225    0.23224679197122
H        -6.51787103297417    0.55548157559282    0.17764565647018
H        -3.27308433677126    3.32266358577190    0.45019911836923
H        -1.68547451021977    1.46779011517861    0.70196646298677
H        -0.47853743551418   -5.32776928636179    2.03528737696395
H         0.52837751045003   -8.64962461829653    3.07022136565846
H         0.04764246712958   -7.01322461303519    3.57751611339858
H        -0.53565637939396   -7.68239851942478    2.02137142386102
Cl        0.12578956590199   -0.51530267019556   -0.96450457172325
