60
 energy: -92.801938573245 gnorm: 0.000409115149 xtb: 6.4.1 (afa7bdf)
Ir       -0.58606174454936   -1.21842689627562    1.59755901057782
C        -2.26735951903616    1.36242320552260    3.11486833391022
C        -1.13895869092971    0.38913080434454    3.07418492463215
C        -1.12156942402267   -0.89461214886031    3.74409527529946
C        -2.23475738281422   -1.46836691787280    4.55144961457245
C         0.22848515324822   -1.37007394045806    3.75833254142163
C         0.70575901788860   -2.48764182918329    4.61983313049406
C         1.02311723781704   -0.45918675068924    2.98537352193777
C         2.51299922778923   -0.39438784038711    2.92753698660953
C         0.17363976749818    0.65672469208643    2.61086853316960
C         0.67323196801869    1.92277806389147    2.01215694544572
H        -2.13966392838016    2.00196975433846    3.98968682198095
H        -3.22862082940723    0.86370354068993    3.20833135771990
H        -2.27391049693414    2.00746899042296    2.23888436910502
H        -3.20438856918734   -1.21848161298087    4.12948654127803
H        -2.14816697868337   -2.54876710454266    4.62550747922824
H        -2.19141415468836   -1.05544795205567    5.56038859115170
H         0.16412664016010   -3.41052036968449    4.42566574252424
H         1.76992571235862   -2.66059542780784    4.49715378457848
H         0.52343272030137   -2.21468333533264    5.65994979076387
H         2.84924853758546   -0.04684826406273    1.95406155595901
H         2.97044355960273   -1.35478646334961    3.13953639924753
H         2.85760684115455    0.32371095183808    3.67313550601049
H        -0.14304797742963    2.56426205126230    1.69463977472011
H         1.31022333120689    1.72062178323004    1.15381035037594
H         1.26760186204411    2.45454434710398    2.75542871302614
F        -6.15840496987435    0.53019240896532    1.05422703970148
C        -5.65644036223217    0.19389945391927   -0.15091322749614
F        -5.13651740062792    1.32237931265584   -0.66116048200787
F        -6.69503344100272   -0.14281564833027   -0.91992901244102
C        -4.63000555721423   -0.90073621856389   -0.03265773963717
C        -4.88633509140948   -2.19835244476080   -0.47994863968290
C        -3.88332787095827   -3.13668636508915   -0.34659564545004
C        -2.67521841990530   -2.76471442147431    0.25008438368655
C        -1.52072064893762   -3.60612679248403    0.31906424183541
N        -0.42092826838598   -3.12015595469179    0.79711964727513
C         0.77211775908254   -3.91685175542965    0.55993475298789
C         1.96733942104752   -3.45120651643734    1.37747976126312
C         3.18664695603326   -4.32461599833331    1.08302905765877
C         3.54096749364482   -4.27178120909937   -0.39921392253972
C         2.34316801198398   -4.70233599006624   -1.23880744945306
C         1.13006661812259   -3.82872940253858   -0.93757011117764
N        -2.46728151595425   -1.51545607612969    0.73025754133624
C        -3.41326826972223   -0.60271561324565    0.56400616806776
H        -5.83423724281583   -2.44661384715596   -0.93138455771813
H        -4.01728872037073   -4.14468525572859   -0.70476364186763
H        -1.56237055697664   -4.60231620657590   -0.10810663368624
H         0.54553749412978   -4.96281927297038    0.80339493250758
H         1.72795691468484   -3.51032993507106    2.43603191308781
H         2.18600443579199   -2.41771464369908    1.10827365944950
H         2.97576964223731   -5.35697786419416    1.37017176641036
H         4.03362709332723   -3.98106120414629    1.67783850817681
H         4.39154737157137   -4.92383070148651   -0.60307794009696
H         3.82684420734247   -3.25445107136180   -0.67231583078109
H         2.58348270071937   -4.62250433811787   -2.30017544568603
H         2.10552768982576   -5.74749480601629   -1.02773187572632
H         0.28106561590172   -4.14578351257028   -1.54477248907406
H         1.34767363889719   -2.78825976605293   -1.18085149103714
H        -3.20345224602449    0.40093212703098    0.90142661266934
Cl        0.11759963745880   -0.39843380193570   -0.51786344630228
