84
 energy: -134.637924601370 gnorm: 0.000616569822 xtb: 6.4.1 (afa7bdf)
Ir        0.34888143723228   -0.75457269903468    2.15258867075068
C        -0.96204540849013    0.73518825782650    4.87178512775697
C         0.24946564567392    0.31359676253806    4.11393404603834
C         0.96281724447581   -0.90795359262019    4.32536224960636
C         2.13964733842491   -0.88702214444422    3.49286463932571
C         3.26973240734337   -1.86092795033497    3.54272099025045
C         2.18817845467388    0.38168661312970    2.82821610872987
C         0.99236956015891    1.10738156239058    3.16448097758209
C         0.73445780283089    2.50368421907252    2.78828255124999
C         0.48979332073769    3.47069367989301    3.76239511180134
C         0.31264055762560    4.79234568262408    3.40391731694233
C         0.37343125137093    5.18862984575490    2.06854192500606
C         0.21866017956419    6.60256379942018    1.69573823254939
C         1.04014807789795    7.16831219128261    0.72239143227734
C         0.90809847211825    8.50087825604881    0.37774587118958
C        -0.05028398105802    9.28843211109597    0.99491669440635
C        -0.87444427803631    8.73526534464807    1.96144699158776
C        -0.73971954094613    7.40444281929225    2.31221815488405
C         0.60414420943799    4.21533385917349    1.09687962613952
C         0.78330010838070    2.89309231344784    1.44910161430987
C         3.33591177431261    0.90454859831662    2.04241900866240
C         0.64730873953676   -1.89321642576012    5.39747569893120
H        -0.66377372925514    1.05983640578793    5.86931219605285
H        -1.65722557844512   -0.09249665556581    4.99075840051741
H        -1.46793535187778    1.56014433803503    4.37828404366742
H         3.92900214121048   -1.60422189578270    4.37275379915568
H         3.84300521194669   -1.82565162331866    2.62080046562109
H         2.91191043997243   -2.87632153516523    3.68805811281785
H         0.47554949736964    3.19351585612994    4.80464215730407
H         0.15458582723946    5.53463649887988    4.17155629727669
H         1.80269611133988    6.56623022908163    0.24995051307940
H         1.55639853726321    8.92851429632537   -0.37349870502453
H        -0.15372377901128   10.32898809597506    0.72434482981486
H        -1.62599029698090    9.34446756584478    2.44232001003041
H        -1.39699053835698    6.97872405183571    3.05634341627266
H         0.63140617866970    4.49732850679908    0.05512790197381
H         0.94871842525274    2.14750879819105    0.68533547134968
H         3.34697039556044    0.47467877213906    1.04070462646396
H         3.26554404010681    1.98504336730640    1.94459893671218
H         4.27047966268752    0.64121848923374    2.53360863112533
H        -0.39036534793278   -2.21620689214438    5.35354432902847
H         1.30078505034960   -2.75750368101763    5.34147806520408
H         0.79956778234913   -1.41279496406393    6.36472790519725
C        -7.38396957793210   -1.15655147364682   -1.01768799910731
O        -6.05482429845483   -1.19219318990399   -0.49700910969242
C        -5.49047134828870   -0.02940222239023   -0.19933655952877
O        -6.01720368086195    1.04830574489403   -0.34225944487749
C        -4.11136074654720   -0.20152221780670    0.35687561713448
C        -3.42517308037076    0.92141081519190    0.82868012446008
C        -2.15987219288873    0.76540694206012    1.35926827995481
N        -1.56297784249868   -0.42225555633498    1.44690763181131
C        -2.20647323215428   -1.51433649882683    0.96671924869352
C        -1.43269869450229   -2.72300854253727    1.03547836406694
N        -0.26791193356581   -2.64126917291173    1.58881614432256
C         0.63115412469944   -3.71559975220179    1.49923425517245
C         1.04961394601402   -4.38041751635516    2.65262476648487
C         1.97787185413361   -5.39208644034824    2.58273907296204
C         2.55781362954990   -5.74371675319265    1.35540173569187
O         3.48332745000778   -6.71751519273573    1.39642822006443
C         4.13773295555225   -7.10443318498742    0.20116734958587
C         2.14497030340513   -5.07982069706184    0.20186427045694
C         1.17063535865258   -4.08992189436911    0.26045921698122
C         0.73860085231288   -3.43721584494314   -1.01042357685879
O        -0.40634090874548   -3.13033446275124   -1.27017817373867
O         1.75265347125781   -3.29765858958572   -1.85356284498546
C         1.47132920985718   -2.66770383888570   -3.10018496826860
C        -3.48483206094499   -1.43735817639751    0.41733354296659
H        -8.02695300490651   -0.56394471259949   -0.36511712918598
H        -7.71672987588021   -2.18983829812771   -1.05734858960269
H        -7.38561499317560   -0.71227609167301   -2.01417732529592
H        -3.89110598203995    1.89263232867012    0.77576815552968
H        -1.60364989343745    1.61981571629434    1.71849051333631
H        -1.81432801349065   -3.64954806392190    0.62662322784833
H         0.60276652808454   -4.11272291825055    3.59592795124013
H         2.28607271155971   -5.92984156653192    3.46485217131617
H         4.85439905684939   -7.86735117679037    0.49797359942335
H         3.43227341343837   -7.52788664262560   -0.51827372815306
H         4.66672376767518   -6.26129167245348   -0.25001662996905
H         2.55918967717530   -5.32663896886223   -0.76130281104987
H         2.40563615903109   -2.66794211507586   -3.65404897074927
H         0.69745152671016   -3.21822502481332   -3.63789283858498
H         1.12722239416829   -1.64649614189834   -2.92562680366675
H        -3.96551306272169   -2.32469417045317    0.04023329127074
Cl        1.09388298066205   -0.59174689306679   -0.09349069102967
