78
 energy: -109.037075406588 gnorm: 0.000383886454 xtb: 6.4.1 (afa7bdf)
Ir        0.25582777170801   -0.12466732901170    1.43021928718287
C        -2.07921153442825    1.51668436347908    3.26476020779424
C        -0.72594243678622    0.91336072723706    3.15962151227907
C        -0.46433270588474   -0.46808626605930    3.53938438276032
C        -1.51123393067564   -1.41745383444544    4.01061405778100
C         0.93147712954541   -0.66862657982085    3.48422895625563
C         1.69612479146080   -1.84271857442404    3.99310135564229
C         1.53752122432184    0.61477501263567    3.09502312326862
C         3.00842642366391    0.85736107733968    3.09429138254580
C         0.52068585435003    1.59593725892086    2.98642384178444
C         0.76888021738618    3.06315832876741    2.77096135293100
C         0.22383066507296    3.58168662162618    1.43379419286604
C         0.61822446406868    5.04324034730346    1.23955210929790
C         0.10243293068350    5.89827180648316    2.39450916369018
C         0.62278511871687    5.37085294197079    3.72936659864655
C         0.21470310801116    3.91279399151566    3.92183663600897
H        -2.85310985686455    0.77769129661451    3.07569656210404
H        -2.21660631209780    2.35507764779972    2.58701474471047
H        -2.21813979634737    1.87951805405030    4.28459250287072
H        -1.09416326102637   -2.40315477811411    4.18850952154193
H        -1.94611134922251   -1.04889156600343    4.93912185796359
H        -2.30813222883603   -1.50722234789270    3.27391336394266
H         1.07576788540475   -2.73334097137511    4.00475925142784
H         2.58362916000382   -2.03702824646190    3.39738738706096
H         2.01711302160444   -1.63687747827437    5.01475329098758
H         3.55746013436623   -0.05632346799002    2.88896488148284
H         3.29195461737119    1.62429084562122    2.37913629862890
H         3.30021940983188    1.20194973186339    4.08744631425670
H         1.85336333187774    3.21298152386898    2.75712272911695
H        -0.86433534438589    3.50219688608189    1.41136313598212
H         0.62433437388818    2.97995212600844    0.61366678323406
H         0.21147779697656    5.41435335474347    0.29642348695926
H         1.70631678961670    5.12551114384312    1.18796000928462
H        -0.99042030289069    5.88360063655948    2.39962592185042
H         0.41698484296901    6.93459436981349    2.25639522157188
H         0.22390253814914    5.97499058158817    4.54676566414352
H         1.71174404897410    5.45649368350847    3.75460554266169
H        -0.87288404601550    3.85273753959557    3.94587341625344
H         0.59776411953739    3.54002113691453    4.87372936234636
C        -5.13046526117201   -1.79473805427177    1.96357019188021
S        -5.23108862456969   -0.07525317709378    1.37984123005645
C        -3.64543946093185    0.14686362820440    0.69506428411352
N        -2.77820540535688   -0.83466293358532    0.76557236857883
C        -1.57741985711144   -0.70765577955332    0.17137993471739
C        -0.56691663401148   -1.70247777669009    0.39934112394822
N        -0.34945360972130   -2.85473885667665    0.05251099655902
C         0.72280014244526   -3.73412841158845    0.39379933526631
C         0.15997285238764   -5.07891892850049    0.85705917548432
C        -0.56862122996796   -4.95864499168962    2.20021253312558
C        -1.07433167345146   -6.30064071700010    2.64939556760343
C        -2.31857102139064   -6.76261022743930    2.23942397578727
C        -2.77064519046229   -8.01206710722095    2.62586397431780
C        -1.98103601498158   -8.81915272653091    3.42804343760788
C        -0.73771202295636   -8.36941366416021    3.83977050078189
C        -0.28865605452784   -7.11942772295808    3.45105151305296
C        -1.20045512941179    0.47522863756111   -0.53817161438967
C        -2.11648473104068    1.52541365320271   -0.56757866668618
C        -3.34222467908020    1.39292916222113    0.06796581018914
C        -4.27663725315498    2.44554137520908    0.06003709053826
N        -5.01589065556613    3.32433460259270    0.06118437888010
H        -4.38824302734595   -2.30890794366199    1.36298620951213
H        -4.85842238563532   -1.80027141223701    3.01402016566686
H        -6.11615508586554   -2.22787666622081    1.83011357981180
H         3.31091236253766   -0.14137537439764    0.15834126918247
H         1.37244865760421   -3.30378843815898    1.16526472126592
H         1.30028780602378   -3.89010958615773   -0.52126669831208
H         0.98389707259271   -5.78709710046003    0.95247350089121
H        -0.52909263178601   -5.46065943971913    0.10326857080732
H        -1.40175743248565   -4.26222487431407    2.09168372302383
H         0.12529519942475   -4.56664494795738    2.94587218912679
H        -2.94005947047270   -6.13914694814600    1.61294399662806
H        -3.74132093010004   -8.35931061382577    2.30157246788984
H        -2.33388620378722   -9.79422742061957    3.73198932198981
H        -0.11762307399322   -8.99524770864265    4.46560503711886
H         0.68364852123721   -6.77833056114891    3.77712403683524
H        -0.37831273795163    0.48011229363440   -1.24443918764119
H        -1.88714334976050    2.43769395492437   -1.09892514788741
Cl        2.11713855970010   -0.38289979280646   -0.21112530843706
