73
 energy: -112.645737089596 gnorm: 0.000307322920 xtb: 6.4.1 (afa7bdf)
Ir       -0.93351052604333   -0.85495668125459    1.31692759543781
C        -1.94131436643203    1.54579477065243    3.67110635646163
C        -0.92645267051287    0.61067209372575    3.10392456300993
C        -0.84110832302152   -0.77139302795185    3.53605909271130
C        -1.73843140082172   -1.39033089094534    4.55322716090698
C         0.40650619213164   -1.30412681308243    3.08106757381608
C         1.02070367921195   -2.58063850407473    3.53789072448664
C         1.00784120663022   -0.32499178953793    2.23172106069649
C         2.37775842556754   -0.40718451991280    1.64787560774460
C         0.20207619900864    0.89016858053341    2.29253396455393
C         0.72157330393938    2.21620503390807    1.80695966082300
C        -0.23018407312270    3.03405188634272    0.92819378431789
C         0.47450959897313    4.30031888522036    0.44727052747085
C         0.93531517414129    5.14194596993352    1.63474811431454
C         1.86146994032490    4.33003285240041    2.53613277588566
C         1.16915237263312    3.05732337665408    3.01565644463658
H        -2.94778919149499    1.14302500928280    3.57656430130448
H        -1.91022814560673    2.52104363741589    3.20017960281952
H        -1.73310864461805    1.66795464615036    4.73496643585721
H        -1.69401389651790   -2.47466524794170    4.51050424553978
H        -1.42056624433212   -1.07714522259035    5.54841761948766
H        -2.76781461670318   -1.07196748409712    4.41343317373544
H         0.26848792671642   -3.33688901516196    3.74385127085181
H         1.72632405506993   -2.97243606078567    2.81108599970103
H         1.56335511917553   -2.38497854386610    4.46366016579830
H         2.71713734898829   -1.43692744631466    1.59267947584115
H         2.39870768634598    0.01333220767266    0.64574320516901
H         3.07476098912780    0.15316738477027    2.27131481078308
H         1.60826365757102    2.01394811958268    1.19928431124008
H        -1.11992204961611    3.32750851667865    1.48592964941592
H        -0.53297477070320    2.43434908879829    0.06856173428009
H        -0.20390264261561    4.88223235830933   -0.17972049538973
H         1.33824814499642    4.02989620367775   -0.16420721110889
H         0.06576660770545    5.47165623019500    2.20845075114554
H         1.45363453166191    6.03432242090400    1.27840213175888
H         2.16148144059098    4.92973323947195    3.39780205462952
H         2.76591698777569    4.06948214107604    1.98194068588425
H         0.30378448366956    3.32399755544814    3.62263365723511
H         1.85125084336448    2.47604427300065    3.63865429007721
O         4.41199492649135   -4.35993770077482   -1.22941767531604
C         3.52245577845157   -3.59542710062789   -0.93101337959190
O         3.54543573636230   -2.30367437694233   -1.23565585165973
C         2.30079762453337   -4.00728422239432   -0.18670990026047
C         2.26621809966366   -5.27921898063913    0.38369169092489
C         1.13644936210115   -5.70210377481141    1.06165954867755
C         0.03247906944315   -4.87390120212797    1.15937060805653
C         0.06452226511314   -3.59889656084869    0.58978357538076
N        -1.05106525687199   -2.75159328040947    0.67076318151889
C        -2.22812772908855   -3.21525446344115    0.38631387936476
C        -3.32012662406127   -2.29467395314690    0.41964407382771
C        -4.63901109435067   -2.65987963061776    0.07850327526002
C        -5.61315632663926   -1.70385506466842    0.06466492639194
C        -5.26270952663651   -0.35862206817576    0.32081050175700
C        -6.20046927171307    0.68674997086315    0.24165629387681
C        -5.80327896519246    1.98563442992991    0.43536530850127
Cl       -6.95070115123868    3.27595719926733    0.32085248127477
C        -4.45715567482235    2.29128878508742    0.70625009096678
C        -3.53575959559949    1.28788046078405    0.81656428794784
C        -3.90604901659879   -0.05999099452187    0.64435950622497
N        -2.97915181002562   -1.04002731658113    0.75314580603038
C         1.20588115003922   -3.15889427612441   -0.07517700440769
H         4.33870058240226   -2.06943247671377   -1.74976296855134
H         3.13246020852575   -5.91452660818107    0.28539548566184
H         1.11287790676294   -6.68213005418910    1.51114451699066
H        -0.84626515583686   -5.20067274139939    1.69413948089413
H        -2.37300149656462   -4.23874155498236    0.06073222627839
H        -4.85227332433967   -3.68911960320037   -0.15928337026177
H        -6.63813444015172   -1.95012273719035   -0.16430152974693
H        -7.22723898350232    0.45472205951475    0.00822907841444
H        -4.16488684612792    3.32252758785753    0.81809288409109
H        -2.49438516153401    1.50932671946090    0.98269807238910
H         1.21692232807215   -2.18133648375204   -0.53119870608293
Cl       -0.56528394026970   -0.15749922080139   -0.92886726814431
