71
 energy: -109.067157767556 gnorm: 0.000356420336 xtb: 6.4.1 (afa7bdf)
Ir       -0.51103434757113   -0.69033506549709    1.74861781497319
C        -2.14650057309090    1.40607185974147    4.08568239876869
C        -1.03345070532694    0.49991458746112    3.69893217401892
C        -1.04560530533945   -0.93259894149885    3.92539755529477
C        -2.17420854429970   -1.68154265148470    4.54454091655161
C         0.27653093763175   -1.41949628138335    3.74443986026089
C         0.77487334432413   -2.74759117528516    4.19625664287702
C         1.07291581645187   -0.34517144231798    3.20660378862470
C         2.55397351666564   -0.37578150471270    3.04492566498920
C         0.25985849790417    0.86721565137721    3.26511415027231
C         0.78265590441878    2.23710594452591    3.13624549161618
C         0.60582300562180    3.12347145739963    4.19799087931452
C         1.13257266066885    4.39757936661119    4.10592370847810
F         0.95669721698681    5.24445754596623    5.14047047171551
C         1.83085440964858    4.83812705801942    2.99590867776609
C         1.98858292075056    3.93552318277238    1.95888432246780
F         2.66005049741755    4.32845816194540    0.85849386048656
C         1.48457784893938    2.64942365198538    2.00520325141909
H        -2.03528135714469    2.39401171513007    3.64801613597294
H        -2.14540156913676    1.50755527287555    5.17218022390909
H        -3.11300995271603    0.99645065469467    3.80344883666216
H        -2.09640431999383   -2.74612658045126    4.34330939943710
H        -2.14992766867024   -1.53714071032349    5.62531616952311
H        -3.13254414199726   -1.31869976806847    4.18233783001875
H         0.76882790120404   -2.75362549225335    5.28722023292529
H         0.13431897350863   -3.56058826034490    3.86302170842063
H         1.79482028744583   -2.92486626463101    3.86970161642688
H         2.87143788110317   -1.24261716150916    2.47059802383472
H         2.90865381610010    0.51974285674958    2.54480864405604
H         3.02042246193242   -0.42871187738587    4.02927304094049
H         0.08988210602961    2.82989934466207    5.09678066690480
H         2.23171703515795    5.83636823032911    2.94110533707656
H         1.60881676639551    1.99756689161515    1.15410113753483
C         4.28784100713007   -3.21459688379202   -1.07691877624658
C         3.16507342473586   -3.58303881351694   -0.11391495357121
C         1.85209564259310   -2.82714154054071   -0.36914031291169
C         1.25336905333768   -3.11597676006125   -1.75201263033471
C         1.61479192328566   -2.06605234604049   -2.79922792836714
C         0.87355854482217   -3.24720249549266    0.76246877813243
N        -0.32497029440527   -2.45410580641633    0.80339533709383
C        -1.37880400817006   -2.90611646638358    0.21779479192871
C        -2.57395477695141   -2.11084414556438    0.17346940646372
C        -3.75907461223888   -2.62524972714811   -0.34374310542442
C        -4.90434361522863   -1.85102805824955   -0.29434961830112
C        -4.79627620434184   -0.55583685062158    0.19746668067538
C        -5.93716729067730    0.28231558874333    0.21541414629970
N        -6.88861268993951    0.92136861992497    0.20756809370318
C        -3.54096491585825   -0.06282442061131    0.63276336913246
S        -3.55570331605354    1.61954185696689    1.11545101479042
C        -1.98242280806485    2.31002789752528    0.53775069132181
N        -2.46812640810189   -0.85686543209773    0.68700699161774
H         4.44445306059776   -2.13874816513674   -1.09442310979403
H         5.21373338432981   -3.68879518403277   -0.75840826825658
H         4.07106317796330   -3.55402051689102   -2.08541152201536
H         3.50573093746024   -3.36698993225489    0.90117051795610
H         2.98110182126674   -4.65782801783017   -0.17795247494780
H         2.03515659616712   -1.75390922522402   -0.28082774807659
H         1.57006913654067   -4.10420239102153   -2.09107618955425
H         0.16285847595219   -3.12485111479786   -1.68386760511970
H         1.26676535698365   -1.08621332853581   -2.48195534903564
H         2.68604446911757   -2.00895218640402   -2.96134041199009
H         1.13988020327555   -2.30665049590408   -3.74814980011147
H         1.39602785933551   -3.13619964556919    1.71081124532897
H         0.61597827970913   -4.30072923108262    0.61693225528150
H        -1.40150735670556   -3.89809139967586   -0.22213927668293
H        -3.77969680181204   -3.62043515570579   -0.75568971786757
H        -5.85461993870484   -2.22132861389788   -0.64640290532147
H        -2.14371391206620    3.38439243880555    0.53318972090130
H        -1.78543309343124    1.95918167343646   -0.46901122780589
H        -1.16321697823213    2.06169143745762    1.20206805670349
Cl        0.36950334509994    0.25663158112341   -0.22328579912787
