60
 energy: -99.902776674964 gnorm: 0.000214529804 xtb: 6.4.1 (afa7bdf)
Ir       -0.31430755326932   -1.21109528981467    1.72361276843296
C        -2.44401148528492    0.73384446664011    3.60474109741789
C        -1.16103630512933   -0.00799000198741    3.45543934537786
C        -0.95200123460570   -1.38403906240350    3.85371014189402
C        -1.97218760991730   -2.25438992333097    4.50289043620782
C         0.46110751037890   -1.64737378446429    3.81122384303207
C         1.12268233280636   -2.84115012128786    4.40678791874438
C         1.10583875205427   -0.49016070385047    3.27325459851697
C         2.56950425896094   -0.21155814790186    3.22526802577453
C         0.09203253260335    0.53620213512580    3.08103339902162
C         0.40113373810449    1.95234093563290    2.74499682963903
H        -2.52822672236813    1.07470909004960    4.63763948047502
H        -3.30224121641008    0.10014324420433    3.39548808830552
H        -2.47774643167092    1.61172621988778    2.96444245198630
H        -2.96930772453045   -2.04410380094318    4.12754268246729
H        -1.75246931238258   -3.30659562609237    4.34724215365224
H        -1.96830979609054   -2.06344385949546    5.57683922608933
H         0.49986833024176   -3.72668199438207    4.31951090302968
H         2.09171665118226   -3.03251831411535    3.95741972544053
H         1.27755992994879   -2.64830954136166    5.46934649173962
H         2.85952261583694    0.16852007695962    2.24822878522889
H         3.15327444967746   -1.09732578830374    3.45078613099254
H         2.80603213256063    0.55561893346754    3.96250871908763
H        -0.49132693878817    2.50381960244024    2.46463949634534
H         1.11491774307155    2.00291210435687    1.92606268057033
H         0.84907922619261    2.43582097005513    3.61366660868547
C         5.81103140992147   -2.91849602854988   -2.17605006365741
O         5.05769581917867   -3.40832862257816   -1.06692105761665
C         3.78049287334462   -3.71314028003598   -1.27732279000666
O         3.22101196982987   -3.62152874150998   -2.34263028504422
C         3.11934781337869   -4.15430272559866    0.00997604285540
C         2.54551740950721   -2.99525804860705    0.85598990247129
C         1.20933083573360   -3.76016047800239    0.95596733582867
N         0.02740236693691   -2.96879956552887    0.75265956952237
C        -0.83922320153950   -3.30808655813811   -0.14320173808989
C        -1.95020715597258   -2.42897338183873   -0.35711019901932
C        -2.90470254257600   -2.59804342186681   -1.36442174446335
C        -3.89057019726766   -1.64707050883654   -1.52317740204072
C        -3.88112005721413   -0.54044314501344   -0.66799519588324
C        -4.94196152538698    0.51788692745353   -0.81419931944021
F        -4.73539870434924    1.57591082965376   -0.01979426987919
F        -5.02257865378648    0.98189408751293   -2.07040577831284
F        -6.16326139555533    0.04351363582032   -0.50679958628482
C        -2.90893233471013   -0.43549109284966    0.31289785845878
N        -1.97282514386408   -1.36208020793691    0.47929270408071
C         1.70124007298390   -4.72262115700425   -0.14402685339542
H         6.72569511277660   -2.50565109635728   -1.76004010833678
H         5.24377259950738   -2.15281016581113   -2.70761549865994
H         6.03784435839060   -3.73476489453272   -2.86374553726213
H         3.80989395623456   -4.78227939948597    0.56982692014451
H         3.06581234190015   -2.79346642157708    1.78492803405660
H         2.43629358475576   -2.07400430730469    0.28875128780958
H         1.10606510353086   -4.26321137305911    1.92106257815306
H        -0.73651523609150   -4.20622428300724   -0.73898321695198
H        -2.85503191380357   -3.45877176920520   -2.01155237597212
H        -4.64498264277911   -1.73943662331164   -2.28898563446519
H        -2.88539429794782    0.41704099364968    0.97548198423856
H         1.32569780151164   -4.47984419633865   -1.13624537125796
H         1.57856401439698   -5.78356458454794    0.05252555297595
Cl        0.65927468587004   -0.09547221475441   -0.15310477271354
