75
 energy: -108.631715271961 gnorm: 0.000529638263 xtb: 6.4.1 (afa7bdf)
Ir       -0.58761079680515   -0.84672383434212    1.62051509838885
C        -2.55054005705148    0.89897872922627    3.84892753993378
C        -1.23714395858521    0.29959831259008    3.48246022739615
C        -0.89342615922628   -1.06259094740232    3.82053713865950
C        -1.76073549637987   -1.99702345840820    4.59237834920889
C         0.51096979130974   -1.24028993068765    3.58243223215459
C         1.32231424369046   -2.36915102398725    4.11414293007156
C         0.99636847045140   -0.05467699147750    2.95371449829120
C         2.42258935957673    0.24790384351323    2.64025107560897
C        -0.09234317152999    0.92047912632374    2.91819392100910
C         0.13483368494381    2.37668460695484    2.61664023470025
C        -0.83376725434103    3.00710154098041    1.60993582077394
C        -0.41875120051391    4.44979286958881    1.33318140105901
C        -0.41245547446430    5.26245398008290    2.62570979118142
C         0.52093858839042    4.62831063242061    3.65371601372006
C         0.12007157362639    3.18156330879039    3.92760971337255
H        -3.37415513933498    0.23606505153961    3.59095372682085
H        -2.71260169553095    1.86274019354773    3.38008797569644
H        -2.57144999600664    1.03929512985481    4.93066428145234
H        -1.48575603405972   -3.03185120963076    4.40996327421748
H        -1.63902129615638   -1.79783335555506    5.65777464259719
H        -2.80903473671581   -1.86193185604431    4.34269447001158
H         1.55267087223255   -2.15293441681799    5.15863534329869
H         0.77669839075978   -3.30850409363216    4.08769491902939
H         2.26266177498417   -2.47492352538043    3.58270899148908
H         3.01401518862181   -0.66110033011859    2.59139155068878
H         2.50734620451585    0.76716944004855    1.68831157552668
H         2.83690195466737    0.88986537083846    3.41771703422267
H         1.13517691608636    2.46772836981436    2.18314814922082
H        -1.85386021447852    3.01457139050269    1.99522247643242
H        -0.81602770909141    2.43447627595513    0.68187893770095
H        -1.10893715620318    4.89850516305354    0.61572917527917
H         0.57824086721117    4.46563560765984    0.88705954663291
H        -1.42607854752170    5.30779797574213    3.03160359469418
H        -0.09414308031245    6.28596900201975    2.41824859473058
H         0.49031865749915    5.19855437186780    4.58432868393574
H         1.54604284231030    4.66048021825676    3.27777069782695
H        -0.87900927563204    3.16112637524866    4.36369604570191
H         0.81102924058858    2.73486807704321    4.64479864391769
C         4.40352823836544   -2.85152119374376    0.27001925775261
C         3.12468708426948   -3.53912602509354    0.74063419948992
C         1.86020148960060   -3.03016916578123    0.03037619991386
C         1.89246163781187   -3.43867301777920   -1.44762935639318
C         0.75258052596251   -2.88692508068343   -2.29912903150934
C         0.60534880610897   -3.57576327841886    0.75998687814912
N        -0.51067829774131   -2.66670007075037    0.70372209780746
C        -1.55600311586971   -3.00065962262584    0.02161664513135
C        -2.60985230908936   -2.03784258010738   -0.10389578815935
C        -3.73215379016244   -2.18520202456701   -0.92363598683092
C        -4.63912505151291   -1.14993474607306   -1.01357200183656
C        -4.38444549055638    0.01573858016925   -0.28397793271871
C        -5.33859882105069    1.17639035170793   -0.37899802759498
F        -5.35975276360866    1.70857199087436   -1.61228819415480
F        -6.60198693943800    0.81074972138204   -0.10348899097090
F        -5.03469196642743    2.16994660547351    0.46553268476877
C        -3.25584177567455    0.09576180653955    0.51484304014986
N        -2.39787039912443   -0.91137922386751    0.61910270677806
H         5.22997726655128   -3.11883250939168    0.92453909418439
H         4.28597067869488   -1.77053170238572    0.28589386050584
H         4.67313183593839   -3.15060819510168   -0.73874012770212
H         3.02745182566377   -3.36712704078926    1.81298197593591
H         3.21600896413098   -4.61623920011726    0.58862815631369
H         1.83730304287869   -1.93738742789469    0.09242274353093
H         1.91392972938226   -4.52871155233524   -1.52168947705684
H         2.82740242035174   -3.06641352827730   -1.86596638073180
H         1.01497581042878   -2.95637098865121   -3.35247639627250
H         0.57230016031968   -1.84163671443979   -2.06390766416460
H        -0.16845246220740   -3.44239532206567   -2.15369818875650
H         0.32796612619623   -4.54258393662567    0.33056483641879
H         0.85728749917511   -3.71907672220997    1.81220854043422
H        -1.63809828540120   -3.96435853961526   -0.46882473124487
H        -3.87286195127440   -3.09477474999332   -1.48444039100717
H        -5.51929284532354   -1.22500848922775   -1.63321393977239
H        -3.03812700463771    0.99083786285413    1.07824679159463
Cl        0.19184795577968    0.19736973963780   -0.37454541863932
