69
 energy: -119.178116001040 gnorm: 0.000520833996 xtb: 6.4.1 (afa7bdf)
Ir       -0.82583141539518   -1.20353299204275    1.15228964367653
C        -1.95372385475373    0.28306253820134    3.95895281216192
C        -0.79073216277779   -0.14251332455442    3.13192024699735
C        -0.08369056691361   -1.37617445194533    3.26292701998747
C        -0.34774252076400   -2.43064045419172    4.28025891895765
C         1.05491991874466   -1.33680137852949    2.37813750662794
C         2.18261209150262   -2.31256860627317    2.38565339915465
C         1.05183122490300   -0.08033611298681    1.70456142703491
C         2.13504046289535    0.44898896167394    0.83233689028326
C        -0.12362170432436    0.64544591845971    2.12715200973305
C        -0.38910028824711    2.05387126807786    1.79770868569777
C        -0.52181059156429    2.99605876371719    2.81598092460065
C        -0.71911690497095    4.32202020856092    2.48003368245004
F        -0.83900131577899    5.22918219453240    3.47108378572684
C        -0.79897600674745    4.75682104349037    1.16900878831600
C        -0.66825160229102    3.79624531870624    0.18097783423794
F        -0.74649934934281    4.18259824386381   -1.10820556306670
C        -0.46394099807143    2.46003153452105    0.46599705705752
H        -2.47004283401586    1.12462985130429    3.50601251332177
H        -1.59948595909973    0.58369186336940    4.94550177001271
H        -2.65730944805562   -0.53407115803014    4.09994657370294
H        -0.06849285603395   -3.41354538523906    3.90869480988012
H         0.25175457327537   -2.22544299396275    5.16781100007036
H        -1.39326926937477   -2.44298752262082    4.57383747766154
H         2.88088943883551   -2.04062091177338    3.17809158143547
H         1.83103597895913   -3.32255985592008    2.57704068119212
H         2.71611811160111   -2.29905550216000    1.44036448266192
H         2.02153657533168    0.09229472181252   -0.19101101904427
H         2.10308503932392    1.53517053529531    0.81094678976451
H         3.10394431043389    0.12269611296561    1.20207376253356
H        -0.44413681834338    2.71763456450181    3.85375069701992
H        -0.95009387040094    5.79590201437346    0.92871876082362
H        -0.37765947595547    1.74491916789533   -0.33733368494887
C         3.12851024132615   -4.05515398051153   -1.53260704899925
O         2.83145727055172   -5.14021441865364   -0.67017758936280
C         1.68470251367918   -5.12213079752684    0.02818896065585
C         1.43574733200993   -6.24364689185060    0.83057222877933
C         0.27005330026972   -6.30044539167464    1.56141216521237
F         0.03587830584022   -7.38183144760653    2.33366168922245
C        -0.68093808559147   -5.29294055341632    1.53807679125874
C        -0.41306580472904   -4.17714573132947    0.75214099456927
N        -1.33032468281697   -3.11477259597702    0.69535410180561
C        -2.55679884989026   -3.32780992098583    0.33777451263734
C        -3.42053204368529   -2.19054982768740    0.28844711913882
C        -4.74975320490677   -2.21057280078296   -0.14691394143071
C        -5.46855320716623   -1.03907091872739   -0.17979787339431
C        -4.85013564552608    0.15847190768899    0.21993505316013
C        -5.54693974545148    1.41404664433300    0.22121488879686
C        -6.83194312368577    1.74533980918108   -0.16286415981669
C        -6.97006859222881    3.12596239665623    0.06549578441488
C        -5.77064001214047    3.54465663290643    0.57080094266761
O        -4.91095957654317    2.52772539301347    0.66752010878654
C        -3.51189117864211    0.09633636240498    0.63489522420360
N        -2.82593430139585   -1.03204901453490    0.67635849208710
C         0.75951065611816   -4.08069857163543    0.00783667685369
H         3.22222162141393   -3.12050695304315   -0.97513219419449
H         2.36691671657134   -3.94664623842330   -2.30806153704422
H         4.08326883215032   -4.30264865478436   -1.99130501848803
H         2.15045029951244   -7.04845619079560    0.86450748161030
H        -1.57877553376499   -5.37240224194941    2.12780369250199
H        -2.90297935225747   -4.31375013909282    0.05011026849601
H        -5.19044781191691   -3.14429757708199   -0.45668628303976
H        -6.49367739616204   -1.03501021719248   -0.51065635645698
H        -7.58009013551971    1.09116136559758   -0.55949452746069
H        -7.83613462457042    3.72688571633444   -0.11790286295868
H        -5.43209051628473    4.51155206488405    0.88660637074747
H        -3.00224287190859    1.00188432288134    0.93129337391222
H         0.90478641775773   -3.20149392388311   -0.59833180830479
Cl       -0.45123712289352   -0.87810779177639   -1.16963198627563
