87
 energy: -121.430726796947 gnorm: 0.000690557481 xtb: 6.4.1 (afa7bdf)
Ir       -0.85128145714792   -0.11176589728412    1.64120011331377
C        -1.45671427553898    2.49899607915837    3.90242613763133
C        -0.67893883166029    1.31889483118214    3.42263779357468
C        -1.00656600960199   -0.03328517619739    3.85003666660562
C        -2.17103084836140   -0.38078309704054    4.71382590958613
C         0.09221774509816   -0.87834809900504    3.53995328483303
C         0.29233218702828   -2.27731051204104    4.00775254587653
C         1.03181085346957   -0.10032027775969    2.78247798482236
C         2.39739518038538   -0.55761307290559    2.39570396188719
C         0.58462424155589    1.28395439947789    2.78544452276253
C         1.48504929683036    2.42121679950832    2.39142412006638
C         0.89196080215322    3.43292899616107    1.40678994713002
C         1.95008697651491    4.46811968868821    1.03423722908252
C         2.45432484904345    5.19128147866838    2.28108912155945
C         3.02229277790647    4.19154925439288    3.28500109681104
C         1.97352905949536    3.14714432901598    3.65724791853752
H        -2.52074991578000    2.35667026815921    3.73427289916403
H        -1.14068972486242    3.41578828980820    3.41965660167185
H        -1.29855836697764    2.60175952875223    4.97721494467740
H        -2.42812065333430   -1.43283860375268    4.62465422675665
H        -1.92143360995920   -0.17865129920761    5.75607362719935
H        -3.04013329002417    0.21646545816453    4.45268806042909
H        -0.65497976144482   -2.75671846245525    4.23780292131801
H         0.82108219761909   -2.87478807865543    3.26907446602518
H         0.89355789429618   -2.25834877786455    4.91755619405453
H         2.42470788849944   -1.63549373638938    2.26335153858488
H         2.71791212588914   -0.08659798796563    1.47008944234453
H         3.10742950162202   -0.28841384614049    3.17855402741756
H         2.36358574104534    1.98931843443563    1.90312105753452
H         0.04310311730615    3.95109784459612    1.85075551876347
H         0.54914494083422    2.90988421136023    0.51365811946933
H         1.52711238088503    5.18893940089012    0.33190137061381
H         2.78802386178843    3.97468913059686    0.53645711036403
H         1.63028753616221    5.74059238933936    2.74246629700594
H         3.22215351068769    5.91732638239822    2.00605409483025
H         3.35333110789043    4.71413709873155    4.18477985010315
H         3.89336138036882    3.69755446395261    2.84849609585250
H         1.13426542375330    3.63887050438260    4.14981709547162
H         2.39959489795577    2.42583760610752    4.35781336647695
C         3.00684053100859   -6.87414475641627    0.40940328440755
O         3.06993319985897   -5.52250230998700   -0.00159650344411
C         2.02023515411806   -4.71302264341916    0.25049870779391
C         0.86598981345196   -5.08001137101178    0.92904018097572
C        -0.16532718099579   -4.17613981164105    1.12093324695968
C        -0.04643921169353   -2.87010867416893    0.65435256098402
N        -1.08528976714760   -1.95250564032945    0.83736281824437
C        -2.30266018996541   -2.32587117378004    0.63285906395550
C        -3.38097319480929   -1.41365883485070    0.89038214428980
C        -4.69282279235697   -1.85923264951957    0.86626487896288
C        -5.69472534767858   -0.95759728966809    1.20909710947707
C        -5.35249618743245    0.34423915016507    1.46426903669806
C        -4.00413065409555    0.77998783921518    1.36825824417170
N        -3.69124907436187    2.08761866247514    1.51768029607752
C        -4.68462833128895    3.07451335851449    1.91384528014962
C        -5.40856410061179    3.65504867425287    0.69696579371374
C        -4.38204772020478    4.28031231887769   -0.24628756910480
C        -3.29765192644265    3.25930982272625   -0.58378140120704
C        -2.66583307227982    2.70845485804029    0.69703744212900
N        -3.02495121261318   -0.13343150864933    1.16934327655966
C         1.12437492755594   -2.47651366883024   -0.00314939578968
C         2.14429733949463   -3.37992382123133   -0.22776772964687
O         3.29372909845723   -3.10364937387730   -0.88598482957150
C         3.45831764502738   -1.81584772003923   -1.44440775846611
H         2.92707304949955   -6.95591276994124    1.49709910362294
H         2.17003042530399   -7.39496938613972   -0.06429314328864
H         3.94337629781763   -7.31994903672318    0.08083190700629
H         0.75616265740840   -6.08056294188767    1.31305095642063
H        -1.04395197334849   -4.48188674993038    1.66645259789025
H        -2.52962597856846   -3.31669107392478    0.25442733438127
H        -4.91448253123139   -2.88209541671242    0.61505569483603
H        -6.72622100874977   -1.26983617777123    1.24948290047987
H        -6.12883550332238    1.05270997700819    1.69010480764460
H        -4.13951703468582    3.88147769561722    2.41236850951342
H        -5.38000909411064    2.65166789633677    2.63787055548302
H        -5.94806903098049    2.86535119704069    0.17058864953794
H        -6.13224741033287    4.40288735394049    1.02294949233551
H        -4.87089183795310    4.62382449435398   -1.15916209304735
H        -3.92665941345581    5.14931035822886    0.23385777146188
H        -3.72870238699800    2.43380716763172   -1.15435804930745
H        -2.52006901814518    3.71740274794868   -1.19483004698503
H        -1.89405058789903    1.98431643710099    0.45119203323788
H        -2.21972962836157    3.52653224822875    1.26252911793507
H         1.18647422635784   -1.46569431747370   -0.36789961076605
H         2.66949675356442   -1.59024073874364   -2.16710200632572
H         4.42094910210207   -1.84034620740703   -1.95102453854912
H         3.47396112434905   -1.04570618280918   -0.66895108457480
Cl       -0.27557567474945    0.53591404592326   -0.59336731740674
