77
 energy: -116.888624597099 gnorm: 0.000738356403 xtb: 6.4.1 (afa7bdf)
Ir       -0.71136458100293   -1.06783950415653    1.32571055914054
C        -2.02369132199503    1.00337619728849    3.72514271221452
C        -0.85637697859872    0.28390575309003    3.13837634337491
C        -0.49156751246083   -1.05187346158993    3.53930858780223
C        -1.18659889219902   -1.84848291509589    4.59025637539669
C         0.80766870143496   -1.34348768019369    2.99427387938632
C         1.65320791001858   -2.50752151545801    3.37908458136860
C         1.18394304710528   -0.25430270603133    2.16494444286312
C         2.50472503088011   -0.07684606992752    1.49579321303495
C         0.14664380285115    0.76911073023598    2.24977811975031
C         0.34177352037252    2.16345208924841    1.71690775666849
C        -0.81470305478495    2.70210060500507    0.86746444389999
C        -0.44843337399123    4.07517316791387    0.31008389390832
C        -0.13375193771590    5.04856550804256    1.44378651820014
C         0.99843224955180    4.50894540909638    2.31398857876799
C         0.64265424963167    3.13333510912567    2.87150656170934
H        -2.91701804239127    0.38244035977384    3.71038382730355
H        -2.22943463672315    1.93574075201449    3.21265669769012
H        -1.79730185434310    1.22943566243449    4.76789086757519
H        -0.97592618501067   -2.90875011950593    4.48236851226166
H        -0.83012112599279   -1.53297979263596    5.57158368811216
H        -2.26143938665964   -1.69511398615855    4.55647476693716
H         1.05136925711345   -3.38878796980900    3.58410641030703
H         2.37686713161526   -2.75428206749109    2.60735906980904
H         2.20065004608897   -2.25356949693022    4.28765346607248
H         3.05357534021631   -1.01350318306777    1.46309712317512
H         2.37918172144630    0.28833067741224    0.47836336583765
H         3.09828611545117    0.65093841233573    2.04990657186860
H         1.22144137921775    2.14145464153742    1.06692724127707
H        -1.71923025703201    2.80536767225711    1.46717109992039
H        -1.01306965265400    2.00833462849419    0.04878133887282
H        -1.27308879113928    4.46078498881583   -0.29260206118285
H         0.42238864175965    3.98400594176535   -0.34255534704501
H        -1.02507081077556    5.19630288814982    2.05826519647483
H         0.14722092737777    6.01950915522804    1.03107646780180
H         1.19550878299083    5.19774476125365    3.13806960087593
H         1.91002159368873    4.43729442262616    1.71609025049203
H        -0.22786882172412    3.22159028948293    3.52199376663052
H         1.47147560319644    2.74984982151535    3.46936489297198
C         3.16623442624898   -8.08711405524242   -0.39842000678799
S         3.54673555674808   -6.92741932406166    0.93899641009380
O         3.46358602072159   -7.62366364190795    2.20223928518234
O         4.78781372504210   -6.25152257388245    0.64119844444963
C         2.20661463510875   -5.72721792307442    0.86742819858762
C         0.98517290237088   -6.05560212941040    1.42649220826885
C        -0.06087799981305   -5.15343983164989    1.35637152099114
C         0.13600957511006   -3.91581855789054    0.74084156883543
N        -0.90796428234692   -2.98261288180114    0.68017108388936
C        -2.05168317126259   -3.31611657939583    0.16615340901919
C        -3.05718226311507   -2.30597777231455    0.12740808057059
C        -4.31713774125390   -2.45361004806868   -0.46386087680139
C        -5.18221178179622   -1.38662525521522   -0.48646956103637
C        -4.78049052126595   -0.16429823021752    0.08233280376697
C        -5.64900355899275    0.98054738607766    0.07242032049112
C        -5.49097841426103    2.26172756096939    0.56420609485627
C        -6.67497290747895    2.95430581361516    0.25608995671854
C        -7.47348052288742    2.05736568707589   -0.39893140500712
O        -6.86800310815565    0.87440366016740   -0.51197459233480
C        -3.50676650000427   -0.09933942306019    0.66136374338024
N        -2.67657797565670   -1.12822366423983    0.69180559725296
C         1.37715445433641   -3.58931927357598    0.19323796689369
C         2.41011503429444   -4.50742117525335    0.24793475363773
H         2.20897609605523   -8.54656687256690   -0.18769944548070
H         3.14914735912379   -7.53110965838681   -1.32695618370731
H         3.95064225371767   -8.83396604407582   -0.41609228339024
H         0.87367983172857   -7.00525277743535    1.92442323410822
H        -1.01811566857582   -5.38848817096873    1.79494410741455
H        -2.22101364657016   -4.29920834796184   -0.25725738141555
H        -4.58683948373994   -3.40000768394843   -0.90348969747191
H        -6.15801177627745   -1.46884515775854   -0.93766439796605
H        -4.63872202624785    2.65682760397886    1.07544270242133
H        -6.90671262081434    3.97376787760943    0.48483734893574
H        -8.45769268382164    2.15021533099300   -0.81421405613022
H        -3.15742918871300    0.81974749118141    1.10421447012728
H         1.50350545550124   -2.63203213617618   -0.28906335721680
H         3.38107044963387   -4.29213868398588   -0.16877321132505
Cl       -0.22439476750570   -0.50959071425936   -0.94356123533695
