74
 energy: -119.501339835574 gnorm: 0.000626298229 xtb: 6.4.1 (afa7bdf)
Ir       -0.40349350871406   -0.92596537547055    1.50797138712816
C        -1.85477359483568    0.87749760082419    4.02487067275855
C        -0.63702046292745    0.23965690825914    3.45450968010728
C        -0.20774192865562   -1.10995880049103    3.71902662721640
C         1.10893736771377   -1.27371443966298    3.16016091689009
C         2.02734548406914   -2.40751683988136    3.45766204128858
C         1.43259522263242   -0.08269990867008    2.44440960106337
C         0.34348429954427    0.86738115714964    2.63966618205537
C         0.41267165460545    2.30666033218613    2.33763533311482
C         0.37303015105908    3.21579773670821    3.39431178374736
C         0.48505357581286    4.57050720817867    3.15583294107754
C         0.63161694653223    5.05970228615811    1.85853115249946
C         0.76388573928887    6.50274116088424    1.60908016100501
C         1.66514076089898    6.97639232506985    0.65722831556694
C         1.80105505429547    8.33338245307767    0.42941412644434
C         1.03555366845135    9.24020316709220    1.14438812273864
C         0.13308137354900    8.78065768913145    2.08981312948550
C        -0.00030103159638    7.42405765833615    2.32287658552803
C         0.65935801254055    4.14607363832067    0.80607015598808
C         0.55504608380218    2.78944934836308    1.04024912721549
C         2.75326101334991    0.26680850962937    1.85400247885347
C        -0.86897672002682   -2.04813972145206    4.66927067763912
H        -1.69751358767115    1.04648296221427    5.09065784264308
H        -2.72862486316516    0.23737772643441    3.92277745015658
H        -2.05108531160367    1.83731516423405    3.55358888563637
H         2.50205134562953   -2.22012403728912    4.42163553278916
H         2.80507578684312   -2.49709281150555    2.70616576589365
H         1.49057461930654   -3.35008076802916    3.52233922868420
H         0.28312661504840    2.85649970240926    4.40809912171588
H         0.48093016806202    5.25905355656239    3.98734518048952
H         2.27852395959041    6.27781436155389    0.10711407121755
H         2.50795091513863    8.68631217261851   -0.30766331940367
H         1.14192408329000   10.30005738092471    0.96512392232777
H        -0.46934236302957    9.48376288203168    2.64687333175615
H        -0.71842456498597    7.07517976110207    3.05070753846918
H         0.74791821512308    4.50378211867203   -0.20870750852844
H         0.55947995268545    2.09975712823665    0.21081277500380
H         3.31483714276724   -0.62241355612665    1.58343825372970
H         2.63079744459736    0.89404122191237    0.97495141085015
H         3.32673325478791    0.83109492351409    2.59050655725563
H        -1.94812365417106   -1.92361457686577    4.65854162010680
H        -0.62565406485532   -3.08054429591740    4.43489713411494
H        -0.51492595686270   -1.83875401991507    5.67943228588565
C         3.61965364418628   -6.57012584232222    0.71279237173982
C         2.50345421029849   -5.58008375304545    0.71106029060876
C         2.71944917530348   -4.25659228247921    0.33078487864096
C         1.69889969085530   -3.32934339094433    0.36355869116553
C         0.41450070010367   -3.72069207645305    0.74871955746526
N        -0.61583942588614   -2.77910208337840    0.74008953120285
C        -1.76495946026195   -3.07295441826662    0.20838036833556
C        -2.75606022597061   -2.04300025800338    0.20392786920733
C        -3.99984972015584   -2.13253115728252   -0.42954082225709
C        -4.84138490285428   -1.04005510832224   -0.41835088439453
C        -4.40706165130891    0.12223369485586    0.22589662080907
C        -5.26466700772168    1.35927782398321    0.24194693357057
F        -6.57338810014392    1.07590079384265    0.20355431586026
F        -5.01530326272768    2.15809472534600   -0.81178177061350
F        -5.06024864660138    2.10521876144148    1.33855271045315
C        -3.16143251553450    0.14866665898535    0.83408259798224
N        -2.36115303432807   -0.90913517885036    0.83930109427360
C         0.18234010410419   -5.04764439165248    1.12110754223185
C         1.22198372895111   -5.95364257187278    1.11459273191820
H         4.39898690545710   -6.28252357797633    0.01218334350887
H         4.06329732602207   -6.62212903312602    1.70742695542767
H         3.25892371916207   -7.56386251871626    0.45920548341947
H         3.70167391337824   -3.95280447780616    0.00190717297917
H         1.85935057901315   -2.31123647537215    0.04174261349456
H        -1.94527269723693   -4.02971239823005   -0.26620865555419
H        -4.28392750683013   -3.04544791289829   -0.92770106732055
H        -5.80973527294489   -1.07237386255187   -0.89341420795080
H        -2.80568444922115    1.04239364501434    1.32694131596287
H        -0.80086247245189   -5.34797628967314    1.44931817493101
H         1.03969507300432   -6.97199069695637    1.42247003804551
Cl        0.07013628444369   -0.23510743780984   -0.73380707535595
