79
 energy: -107.779587070498 gnorm: 0.000293919564 xtb: 6.4.1 (afa7bdf)
Ir       -0.54219399305165   -0.53065189034132    1.96773017035097
C        -2.80272722206907    1.60720931016440    3.65564197743191
C        -1.53163708285245    0.82951395204334    3.57547069397870
C        -1.46528946592059   -0.55487820001793    3.99739721886245
C        -2.62458613750848   -1.33962688636444    4.51047089635492
C        -0.08944822216768   -0.90845612389383    4.15494810025915
C         0.39129185259549   -2.11887402766937    4.88021617118758
C         0.69391051719212    0.17919484532270    3.65641822954932
C         2.17848923673726    0.30684982523582    3.76219957184482
C        -0.21007961806351    1.28453115989369    3.35120457204674
C         0.28976760514394    2.68681787259487    3.13526335682444
C        -0.29805131795964    3.43827259076028    1.93673720669170
C         0.37581657757042    4.80162010322890    1.80469337242049
C         0.17824905809725    5.62328746939552    3.07605343155547
C         0.72909479756794    4.87408043810499    4.28650900114391
C         0.06929468088437    3.50448526199450    4.42026400772982
H        -3.61628244312720    1.08832247730685    3.15303587247260
H        -2.70799344997244    2.59994672729280    3.23194858261354
H        -3.07338149624737    1.70616612300474    4.70800840207835
H        -2.41392788124398   -2.40502329892727    4.49715722217759
H        -2.82813639005792   -1.04648696581392    5.54121349751598
H        -3.51972710647192   -1.14803886704905    3.92487213637268
H         0.16572304172914   -1.98782696898445    5.93938077399568
H        -0.11516746845680   -3.02055978546933    4.54481548198261
H         1.46453170475736   -2.25195370129058    4.78489186646873
H         2.64845350215351   -0.66317508439819    3.89209964083160
H         2.59650152331897    0.77202825317950    2.87259635468346
H         2.43065412482944    0.92679637736377    4.62301220495536
H         1.36855039711565    2.62563107131010    2.96345492366905
H        -1.36979910999819    3.59546328563925    2.06190644905409
H        -0.13174993609542    2.85870782735261    1.02779633425278
H        -0.04068832629187    5.33550726835611    0.94812578296296
H         1.44414822751392    4.66634512711547    1.62096653596799
H        -0.88691803360775    5.81899545162855    3.22230601609929
H         0.68078424191598    6.58760518154944    2.97673994712241
H         0.55413916608951    5.45455676260836    5.19481619946608
H         1.80876919474572    4.75145946849553    4.17328844741586
H        -0.99880540963274    3.63367666946103    4.59773613907558
H         0.49042666287188    2.97222059148578    5.27524624326646
C        -0.85885344128922   -2.93850481948240    0.50302542528632
N        -0.03050197667264   -2.36550802878066    1.31036870367251
C         1.16850672577888   -3.09874371490613    1.66101290172942
C         2.25960142551689   -2.99702903214280    0.57702334634162
C         3.18330557022679   -1.79485113087472    0.79285219103333
C         4.19457318207793   -1.70273131908388   -0.31522423719988
C         3.90908367250387   -0.97594944566459   -1.46428285700431
C         4.82598051842476   -0.90298866798541   -2.49789795211589
C         6.04125937197912   -1.56022361228809   -2.39614086727531
C         6.33350107448317   -2.28992282595007   -1.25597905153887
C         5.41429609839288   -2.36103458957672   -0.22359414567351
C        -2.00735301341740   -2.19929624022956    0.07335257985951
C        -2.96485703548339   -2.72522843716033   -0.81659209280235
C        -4.01432955622118   -1.94083835885761   -1.20243536879009
C        -4.06762742877178   -0.59856290190673   -0.76980485916316
C        -5.07423876926420    0.29186068176026   -1.19212421940316
C        -5.05110840777628    1.60583091528212   -0.80873775643428
C        -4.00757294564477    2.08445187351729   -0.00066850644863
C        -3.03148430774400    1.23859818248893    0.45232377351359
C        -3.04474488319684   -0.12400248760004    0.10420332330908
N        -2.08254706805126   -0.95777075670744    0.56857207046392
H        -0.68371003992996   -3.94074885310586    0.12644670180538
H         0.90349061899122   -4.15099517684480    1.79808513804405
H         1.56653668954703   -2.70854831523651    2.59492124040476
H         1.79354232394893   -2.92015792340854   -0.40608914827444
H         2.85550536475444   -3.91049866402450    0.59699253529933
H         3.69955976763967   -1.90386813918313    1.74787212017595
H         2.58296940685932   -0.88626600468384    0.81039965023902
H         2.96515000500178   -0.45616163231656   -1.54146968409826
H         4.59565857313468   -0.32946535980295   -3.38445004249254
H         6.76007507493340   -1.50085410466101   -3.20090879105546
H         7.28119116726719   -2.80260315482203   -1.17134033789840
H         5.65255453311196   -2.92890928288860    0.66475264072522
H        -2.85465248398092   -3.73834804124914   -1.16658824274271
H        -4.78779154430591   -2.31860885070777   -1.85326225352482
H        -5.85216091110794   -0.08077062088126   -1.84072022418348
H        -5.82060243917822    2.28433586593095   -1.14225985763603
H        -3.97610105321985    3.13153744562731    0.25708205525333
H        -2.20357872893678    1.60306540061056    1.03703266038519
Cl        0.53234786757894    0.42986243613417    0.07509440548270
