83
 energy: -118.392853614704 gnorm: 0.000717788173 xtb: 6.4.1 (afa7bdf)
Ir       -0.76732281799604   -0.13190927265266    1.12262195435598
C        -1.62803402304864    2.11844783932150    3.72200253585962
C        -0.37748549247247    1.39241111802802    3.32257176477380
C        -0.31109355022774   -0.08412842447533    3.23341508860414
C        -1.20734406675720   -0.89054541030466    4.13562266254239
C         1.15437078322661   -0.40253395912445    3.27206847038794
C         1.71889624844390   -1.78193307970132    3.29160632950196
C         1.84527015471347    0.75668594429093    3.31430572455818
C         3.32447761080463    0.91668283702441    3.32614710681941
C         0.90299899174264    1.88393111008502    3.33396031553328
C         1.37445790853891    3.30128769956313    3.39286111255694
C         0.86714944612997    4.13212784902156    2.20642461262861
C         1.48651159909214    5.52606111166639    2.24258379779072
C         1.14404114947129    6.22797209914552    3.55454754094253
C         1.61746855137959    5.39860869595260    4.74567785285603
C         1.00197407953148    4.00233531257261    4.70797989524426
H        -2.51600393836328    1.55411808265477    3.46429605990456
H        -1.69258979193257    3.10098578940276    3.26729273005318
H        -1.62248602227496    2.25014658000407    4.80430262111239
H        -1.14615420656579   -1.95352098073004    3.92477341051382
H        -0.86074078073475   -0.73416655535606    5.15746507464042
H        -2.24206603034175   -0.56960169383684    4.08249748124478
H         0.96178798187557   -2.50835117932751    3.56338445142495
H         2.11721829480500   -2.04660746391113    2.31253060479694
H         2.53280721810913   -1.84195634235587    4.01105849384517
H         3.81437792539943   -0.05197882221502    3.36071910514394
H         3.64984877156657    1.42542359905068    2.41765867293075
H         3.65004177382493    1.50640879698803    4.18277398805930
H         2.46619584939601    3.29246825273045    3.33151332783878
H        -0.21745839117599    4.22748605028102    2.25629753424334
H         1.12797162725415    3.62678061857892    1.27372953613848
H         1.12338216476285    6.11712577642334    1.39868419137233
H         2.57196683480629    5.44737125744380    2.14590838802700
H         0.06276104218393    6.37112406183018    3.61966429414108
H         1.61114756457912    7.21470035964785    3.57984182303805
H         1.34146000634523    5.89774350705106    5.67733022953548
H         2.70743670138630    5.32194296359414    4.72190794102211
H        -0.07986611771403    4.08761586920017    4.79371875438698
H         1.36468538925323    3.41139867817761    5.55078753657441
C         0.64495289827932   -6.54130541808091    2.99452201461543
O         1.38253314828459   -6.26463758282445    1.81633759164030
C         1.12187898970818   -5.13489821400573    1.13461425165700
C         0.16647830986213   -4.18447708565823    1.47544965984319
C        -0.00850282962859   -3.03426456980282    0.69916228587180
N        -0.99182304943120   -2.09073545995692    1.05008355611445
C        -2.17393658511531   -2.50608998436312    1.41194345413107
C        -3.19129196929239   -1.52873081280356    1.62921688246610
C        -4.50819119099031   -1.84805792692300    1.91766232003570
C        -5.43408493374566   -0.81083859110919    1.95106741744271
C        -5.02986060699980    0.46618819700095    1.64579155267830
C        -3.67515729960041    0.75522331705337    1.34874006116876
N        -3.26743863463192    2.00654844866629    1.04324846387425
C        -2.07562530700411    2.29259893478063    0.26429861138826
C        -2.44660912096981    2.40115737216890   -1.21634020532102
C        -3.47305382432063    3.51976418072295   -1.40514540907468
C        -4.67292204647203    3.30073892321184   -0.48320501938314
C        -4.18262195699431    3.13571932320609    0.95594030120893
N        -2.76698667004623   -0.24754246487318    1.42257680665983
C         0.75695429220378   -2.83594824592827   -0.44448975596551
C         1.70494624155595   -3.77818478852823   -0.80400255314063
C         1.88257659302634   -4.89988680182601   -0.02412765658725
F         2.81733272461778   -5.80691526521923   -0.37728563688975
H         1.03137050960582   -7.49171460952666    3.35590627119615
H         0.80911543737111   -5.77056765867292    3.75124643627474
H        -0.42108874918451   -6.64175527862910    2.77742675528921
H        -0.42599426330342   -4.31445719232290    2.36602346342407
H        -2.41338688357935   -3.56157244116981    1.44058249136837
H        -4.79414498100158   -2.87042122902730    2.09176031337873
H        -6.46934365560057   -1.00789930162287    2.17876001314986
H        -5.76632537447651    1.24824654482361    1.61067551903890
H        -1.66000631023978    3.24204352488486    0.61048888871317
H        -1.28115698564623    1.52080215932755    0.41865866417512
H        -1.55126870402654    2.60696350810797   -1.80400438230791
H        -2.86781525927797    1.45319364395632   -1.55995608954497
H        -3.79788340855716    3.55128199267079   -2.44564497932499
H        -3.00726102889595    4.48038696638945   -1.17428137704492
H        -5.21554761951143    2.40446479995953   -0.79031917359720
H        -5.35445220514745    4.14888921776157   -0.54589891965938
H        -3.62041812381766    4.02597472462341    1.25035678491381
H        -5.00533145284581    3.02599349761520    1.65752682385149
H         0.61398328575112   -1.95507850316852   -1.04658140378857
H         2.31219228165135   -3.64993155571567   -1.68530789535121
Cl        1.28318487943120    0.30882202913327    0.16917478640031
