65
 energy: -111.942034766650 gnorm: 0.000875998210 xtb: 6.4.1 (afa7bdf)
Ir       -0.81566885340594   -1.12682204184278    1.35976205195535
C        -2.42052404714907    0.49153611915406    3.88806693128983
C        -1.14615532299858   -0.02495030616375    3.31751982972656
C        -0.58684908970044   -1.31992167621278    3.57325435997800
C        -1.14749667099573   -2.33181573824630    4.51246341634511
C         0.73736501867824   -1.35422837548642    3.00129597001010
C         1.76106494216943   -2.39944293952065    3.28149754581131
C         0.95221006994585   -0.13320282940299    2.30957234851578
C         2.23930229494541    0.32898556947816    1.72263486764924
C        -0.23382987962458    0.69380401661929    2.48589185435165
C        -0.29883618833298    2.13096777279732    2.16911212978803
C        -0.43816610921093    3.04602460001357    3.21131808345548
C        -0.44199231994796    4.39721930957455    2.92183661992996
F        -0.57158569736733    5.27633554827583    3.93756094686521
C        -0.31620194887013    4.88446782105453    1.63328067093743
C        -0.18596095430663    3.94968240498006    0.62089218508773
F        -0.06598534408792    4.38898093177380   -0.64891286840033
C        -0.17632788925335    2.58861180215065    0.85984217372651
H        -2.71562210723568    1.42122349816973    3.40957677393355
H        -2.27952103794363    0.68125208438273    4.95266027642719
H        -3.22313998656154   -0.23597090432978    3.78943408836212
H        -0.82533256629436   -3.33471919555538    4.24556354267780
H        -0.78791293367972   -2.12036743203517    5.52016976031006
H        -2.23297755149989   -2.29634454400301    4.52628046388530
H         2.22534827717397   -2.18034634776742    4.24389974851568
H         1.31528679009768   -3.38894893092641    3.34019129050558
H         2.53770280788842   -2.40664789716394    2.52304503770418
H         2.78100092620307   -0.49395970082607    1.26395756392147
H         2.07418814344807    1.10044316223660    0.97632953047946
H         2.86054044256559    0.74626899290005    2.51605885261473
H        -0.51847207408075    2.72168335679650    4.23586945528543
H        -0.31746800313283    5.94180788178340    1.42756115488026
H        -0.09206493409736    1.89696083808188    0.03582885997025
F         3.11132218693652   -6.68551390889253    0.82834109329821
C         2.10542207007814   -5.78966853713553    0.78749513820762
C         0.85056244394168   -6.17018017797939    1.23367989123489
C        -0.18116882363463   -5.25219357671426    1.18391396888675
C         0.05371451872553   -3.96201248532848    0.70657584461507
N        -0.98542222664103   -3.02226745400818    0.64840191284628
C        -2.11868821287255   -3.33998478290654    0.10273422092490
C        -3.12304741143619   -2.32692882872079    0.06739764331726
C        -4.38102379093374   -2.46276635174151   -0.52977558331538
C        -5.24770607273995   -1.39577940312646   -0.53389461422092
C        -4.84650029325815   -0.18353439747622    0.05436499613313
C        -5.69909888839416    0.97162486094888    0.08455134858003
C        -6.97478582082834    1.18204304063600   -0.40254162927089
C        -7.30531000419109    2.51178923639655   -0.08542645883337
C        -6.21936527347903    3.02289490410256    0.57014399354895
O        -5.25302845105351    2.10817725047759    0.67757033573220
C        -3.56825520139701   -0.12655014494814    0.62878127680112
N        -2.74327980995222   -1.15833648035675    0.64782253020102
C         1.32929020100520   -3.59588121524745    0.27652843078719
C         2.35981123068072   -4.51512999078418    0.30581477063664
H         0.69431160703514   -7.16956416816038    1.60662738448809
H        -1.16282208186598   -5.52453850105078    1.53859553151334
H        -2.28197375220051   -4.31249098964090   -0.34729976172810
H        -4.65111382907222   -3.40159450483881   -0.98525648174512
H        -6.22083723828553   -1.48285363714606   -0.98773611699179
H        -7.59538593409486    0.48121251751319   -0.92107194443449
H        -8.21978383729706    3.02057013209635   -0.30956308829559
H        -6.03196431047308    3.99134011326713    0.99085529122354
H        -3.22556135851668    0.79444073221428    1.07643554191324
H         1.48617026215016   -2.60165329252570   -0.11269122116777
H         3.34897703063426   -4.26233540264533   -0.03987351241560
Cl       -0.24272113192357   -0.50847140702820   -0.87295624894626
