67
 energy: -117.789353041799 gnorm: 0.000385579795 xtb: 6.4.1 (afa7bdf)
Ir       -1.34479287869608   -1.28609593289620    1.60857840263573
C        -1.90382498475871    1.13199101512808    3.83418327643703
C        -1.09230979150824   -0.07978496725505    3.47683901777334
C        -1.42777264757044   -1.41189693950552    3.76800010123437
C        -2.71543396742022   -1.92894915856329    4.34005485180382
C        -0.12568496878537   -2.18845569087305    3.97598582030431
C        -0.03844024958729   -3.12647707339578    5.15332626398318
C         0.95625327597331   -1.13312103177169    3.87486584919683
C         2.38858245203845   -1.48479503260514    4.03013101935284
C         0.39512120354873    0.04152460783823    3.52661533215392
C         1.07024343594917    1.31095413118735    3.25578638995126
C         2.06075393723600    1.79479600378153    4.10670480978926
C         2.66636962445165    3.00263465203871    3.81516522742231
F         3.62221164959902    3.46686257617366    4.64715124387660
C         2.33175307425428    3.75767930137423    2.70517358727096
C         1.34650422484298    3.24862670689060    1.87745053760669
F         0.99210237205743    3.95247710912420    0.78149550699442
C         0.71047622915569    2.04972408323839    2.12979663619886
H        -1.91268747230266    1.88098531633055    3.04826357499758
H        -1.43911278349704    1.58692574837777    4.70884300967717
H        -2.92027891802988    0.86370422149150    4.09935513609714
H        -2.87034863216888   -2.97005036375127    4.06703102446529
H        -2.68225275827479   -1.86465964278508    5.42757160398555
H        -3.56431236875251   -1.35070457889964    3.98876034742383
H        -0.12532636200055   -2.54587764870347    6.06910411698353
H        -0.83401919775005   -3.86501193230471    5.12504195985493
H         0.91821723332532   -3.64177390837541    5.15710397411483
H         2.59979221250819   -2.43656049663051    3.54508823721793
H         3.02281411582049   -0.71610971008676    3.59772114924713
H         2.64011536245943   -1.58844913392230    5.08568516906731
H         2.34505021323160    1.25777358962065    4.99607042797790
H         2.81383097944716    4.69803603848529    2.49703171482535
H        -0.04030845749663    1.68877612140911    1.44488817701823
C        -4.35679941570987    4.36020730640427   -3.63723948805216
O        -3.81849228343644    3.32534703396729   -2.81651524495215
C        -4.35441788952701    3.17159694365273   -1.60855143648259
O        -5.25432392581277    3.84933446463930   -1.16864171432004
C        -3.71334579689788    2.06287338253465   -0.84630373168778
C        -4.15483640766516    1.77827121278329    0.45156797856673
C        -3.52492602339466    0.79508454894236    1.18304675141435
N        -2.49612135217634    0.07531110098671    0.71453126562028
C        -2.14798554364427    0.26322555782763   -0.60011283962136
C        -1.27864543863273   -0.74614818248158   -1.11349950552942
N        -1.00416381662853   -1.72443691450834   -0.29736389868619
C        -0.30366315767762   -2.84715685563046   -0.76692096368652
C        -0.79054399039391   -4.11794339667619   -0.45315905409210
C        -0.12982043919964   -5.24420643906409   -0.90705670134644
C         1.02703512080294   -5.12278516128961   -1.65971102297073
C         1.52109348436103   -3.85698204487446   -1.96524992410445
C         2.76056481374374   -3.67642366656176   -2.76595829985168
O         3.22857427898259   -2.59423700490247   -3.04369250518924
O         3.30980140686459   -4.82213253320527   -3.15336089094842
C         0.85250297948175   -2.71842666061988   -1.52641748779896
C        -2.71288117793090    1.26774799075307   -1.38356903832138
H        -3.69594131799500    4.43630391747385   -4.49594417582658
H        -5.36870371902562    4.09937366967645   -3.95192453202437
H        -4.38930967026698    5.30150393274856   -3.08620209721719
H        -4.97201135084945    2.34425815090229    0.86850533917019
H        -3.85243894344073    0.57078324259636    2.18471870697830
H        -0.97741802428481   -0.75764024480295   -2.15373615531422
H        -1.70054495533137   -4.20694284888786    0.12103163989725
H        -0.51715429897241   -6.22288280439665   -0.67180848900798
H         1.55132409661428   -5.99700577662533   -2.00942701254206
H         4.11357191358659   -4.67953312890818   -3.68421165471007
H         1.26470985349459   -1.74858177454309   -1.76080078614630
H        -2.37653718087676    1.41238405772763   -2.39677705255258
Cl        0.00022001538854   -3.10595205518517    2.39736652549297
