81
 energy: -120.159851121341 gnorm: 0.000540488592 xtb: 6.4.1 (afa7bdf)
Ir       -1.11729248066871   -0.72857161384485    1.00495674941049
C        -2.06679640513398    1.73386671345817    3.31759838684862
C        -1.07811281557437    0.75987595286668    2.76886664665019
C        -1.03015461205940   -0.61616505885089    3.22193489633414
C        -1.94781404874452   -1.19875235373518    4.24308364936665
C         0.20517876803598   -1.18768148615939    2.78189853650061
C         0.77917171737872   -2.47595855775110    3.25714693758926
C         0.83456246695125   -0.23920731405759    1.92043393333816
C         2.20889339677140   -0.36323232471270    1.35099530800932
C         0.06064842033372    0.99635861718376    1.95707507282836
C         0.61679763524474    2.30067029260911    1.45382375282098
C        -0.30869458686777    3.13291571260835    0.56087644894734
C         0.43466837356736    4.37139148834694    0.06568037078729
C         0.92051810446224    5.21398547658177    1.24236935685415
C         1.81995922580527    4.38712043110099    2.15705059840118
C         1.08676320316849    3.14383897485962    2.65209673088425
H        -3.08451388972534    1.36200354571332    3.22044942597170
H        -2.00322290462241    2.70003788015159    2.83199902489327
H        -1.86174567251928    1.86542057925024    4.38069865762260
H        -1.94460666252753   -2.28422122477741    4.20182340915096
H        -1.61614488463136   -0.89692582751473    5.23725457240219
H        -2.96502543085774   -0.84242607634560    4.10449297942561
H         0.00399061236708   -3.21046447470941    3.45667438055162
H         1.48255861718749   -2.89345885203767    2.54240198534162
H         1.31351101095001   -2.28907531935057    4.18949024885349
H         2.51105015263115   -1.40515667502958    1.29227542575329
H         2.25434512657651    0.07318539236753    0.35569486083859
H         2.91842448844894    0.16498195158045    1.98879123529809
H         1.49892225535484    2.06677981238379    0.85067085103806
H        -1.19273019729367    3.45794007036379    1.11007444415803
H        -0.62575915906491    2.53023635488430   -0.29179013005230
H        -0.22512757754675    4.96579898624317   -0.56920982013245
H         1.29025406030858    4.06707071088864   -0.54144455595639
H         0.06105157664028    5.57794483012347    1.81036436142464
H         1.46674097945154    6.08474277226107    0.87456209602650
H         2.13635100133687    4.98924339177628    3.01097948470243
H         2.71732207443698    4.09030731621713    1.60956184890780
H         0.22826747049300    3.44556893353065    3.25228298837352
H         1.74796883617494    2.54954319742630    3.28550518677769
C        -8.82171511318302    4.45327761927894    0.10931140654038
C        -8.18985846170028    3.07105060272971    0.07314029008693
O        -6.78957060484299    3.22890832406730    0.27257448438705
C        -5.99304701954790    2.15556197307348    0.29252847163086
C        -4.61053869174425    2.43471198931308    0.46443953668732
C        -3.69255846199175    1.43300196769832    0.52986330331752
C        -4.08476834991623    0.08196214691216    0.41569461145334
N        -3.16688576644597   -0.90274625690645    0.49539867975310
C        -3.53875446828883   -2.16581753737714    0.22796211275604
C        -2.45989962161572   -3.09939395586185    0.16994365083230
N        -1.26717172542582   -2.64375825681056    0.38967836975319
C        -0.16318546889784   -3.50153239004507    0.28637738347357
C        -0.16997955817673   -4.74842675439978    0.90629453776844
C         0.93955223300858   -5.56806833335377    0.78830446103247
C         2.01965229638820   -5.15162695843458    0.04036596270639
F         3.09032222305951   -5.96613747566855   -0.07317369218958
C         2.04624401231280   -3.90574231643489   -0.61119653830155
O         3.14529472067184   -3.61491628724504   -1.33062263409453
C         3.18041988801289   -2.39880483912616   -2.05692776001609
C         0.93941154110724   -3.07905315121684   -0.45621753010019
C        -4.87896698121187   -2.52079862428705   -0.02645751324847
C        -5.84021420394439   -1.55180152184966   -0.01448930767047
C        -5.46465238776942   -0.20396486238535    0.18448755851230
C        -6.39796645928770    0.84293785788393    0.14583237246526
H        -9.89368747038636    4.36889212478894   -0.04197513209635
H        -8.40036215330011    5.07777939671695   -0.67344622296227
H        -8.63438656464704    4.92543561494926    1.06965939363039
H        -8.60694920702454    2.44018127662592    0.86750174478772
H        -8.37072160114236    2.59357891048111   -0.89769628474863
H        -4.31867711830932    3.47006545133315    0.53259886824114
H        -2.64022600845016    1.64792239507484    0.61889580581828
H        -2.62898933727121   -4.12957159316276   -0.12077185010307
H        -1.01616134232837   -5.06414170190407    1.49415761803730
H         0.97510641498182   -6.53347426209861    1.26621093427991
H         3.15332253515067   -1.53830882163867   -1.38530416996955
H         4.12541009477096   -2.41303750585311   -2.59518933554256
H         2.35280842381431   -2.33884267377077   -2.76728318777592
H         0.89046398334313   -2.11453728656415   -0.93525095077245
H        -5.11842019952110   -3.55349598422563   -0.21951896603537
H        -6.87888507036599   -1.79394002284889   -0.17793084568053
H        -7.43254674869041    0.58983162677921   -0.01993014319779
Cl       -0.74205644750407   -0.09117413003070   -1.26022183040577
