85
 energy: -136.190222776923 gnorm: 0.000205260692 xtb: 6.4.1 (afa7bdf)
Ir       -0.78240443145639   -1.39107241363450    0.64280938499892
C        -1.54979221462992    0.55792650087250    3.31199883398599
C        -0.49433413196634   -0.12922364676067    2.51611405971138
C        -0.04628084965686   -1.47327869502970    2.74326560638838
C        -0.48389205738536   -2.34875058040991    3.86826283310483
C         1.08321659060712   -1.71698593028285    1.88166021727525
C         2.01599007728384   -2.87519858192337    1.97292835270601
C         1.27571711470988   -0.56779651304715    1.06813244869169
C         2.41954425366035   -0.33938168039802    0.14065596522922
C         0.29026148725419    0.42625187136273    1.45678102994760
C         0.34409451244718    1.83484213007397    1.04426362915904
C         0.33816274909797    2.84263925493009    2.00851387159919
C         0.43847998701681    4.16031171109686    1.60549566508795
F         0.43293188719477    5.12649861319348    2.54779054257738
C         0.54336936720495    4.53023314402994    0.27657844899817
C         0.54719627985051    3.50774330106013   -0.65700068259381
F         0.64263036540567    3.83082883861779   -1.96299054577257
C         0.45250393209042    2.17575120704344   -0.30479824435203
H        -1.91035941414563    1.44900827294506    2.80611609367654
H        -1.13814321165450    0.84373757092245    4.28065312499711
H        -2.39154022701362   -0.10531173921053    3.49853458658393
H        -0.32597342359075   -3.39754739120800    3.63193568353758
H         0.10331477668552   -2.11045359115206    4.75565809778475
H        -1.53242296941119   -2.19061156819678    4.10483034285705
H         2.83173123184772   -2.61425178987526    2.64836257169919
H         1.51920174462386   -3.75690699709750    2.36654466132228
H         2.43767795667291   -3.11771051229383    1.00134458873865
H         2.16111984233169   -0.62796197577051   -0.87790155315454
H         2.68787848664205    0.71473957885085    0.12860093239897
H         3.27946405123325   -0.92649111454558    0.45167223007929
H         0.28769671406633    2.61455197333232    3.05976519255491
H         0.62231242623022    5.56348977840168   -0.01755684122917
H         0.43375803631310    1.41826083360043   -1.07296484206611
C        -6.59828150487589    5.51850033059015   -0.41485902898749
C        -5.43395669695073    4.55693480142528   -0.23674628389184
O        -5.97702691936360    3.24530656687868   -0.12424635499162
C        -5.17274528151774    2.18484378059562    0.00565279901084
C        -3.76049766115327    2.24691008722061    0.06501755048434
C        -3.01584952099212    1.10990334125923    0.20571488674859
C        -3.61769389331391   -0.15979404941750    0.28093932206793
N        -2.86748576402485   -1.27779480940923    0.40330764325044
C        -3.46553946720033   -2.47864778721602    0.33615559377870
C        -2.56093278803000   -3.58385384656686    0.30307773946208
N        -1.29575047818350   -3.30770836118547    0.32833973080494
C        -0.35398866093026   -4.34320001692361    0.23297281850426
C        -0.43716892667906   -5.45634815199774    1.06954933442760
C         0.49513024652384   -6.46929488773215    0.93670767549894
C         1.47661087117341   -6.39845739476745   -0.03644299978384
C         1.56107103484508   -5.29515046239030   -0.88874885765337
C         2.56091813324925   -5.24853682053638   -1.96395305418958
C         3.84416924330951   -5.75602467888733   -1.78602952923734
C         4.76889648300588   -5.75390698766109   -2.81507300801295
C         4.42064114010692   -5.24568052010319   -4.06330584487313
O         5.23464348674654   -5.21031193267619   -5.15160311029086
C         6.52941532372422   -5.76484738213737   -5.05271171450986
C         3.13712876420609   -4.72302120560918   -4.24620436371379
C         2.22746691110411   -4.72194958633482   -3.21395157586574
C         0.65178836411655   -4.25425936499429   -0.72409222792008
C        -4.86609891062084   -2.62490732033277    0.24885676610842
C        -5.65096217406277   -1.51122683081594    0.20265890391699
C        -5.04363350399075   -0.23264980219512    0.18971629202563
C        -5.78687470981990    0.94294695374894    0.06998513846121
H        -6.22414670427633    6.53474205569269   -0.49465784308178
H        -7.15195627637700    5.27142324638947   -1.31635894781530
H        -7.27097425899091    5.45203208354163    0.43550043674277
H        -4.87112632157046    4.80434982251516    0.67192647381179
H        -4.76276410918470    4.60824234437039   -1.10310154141621
H        -3.25542453060526    3.19616055139752   -0.00981405163426
H        -1.94050542237296    1.17358106167550    0.21009558272470
H        -2.91781403438598   -4.60083985715330    0.19017661652581
H        -1.20873923643429   -5.50867974807671    1.82205732370593
H         0.44571965436953   -7.32833393500832    1.58787802609632
H         2.17119330284217   -7.21512879813499   -0.15477906305937
H         4.14097378671178   -6.14381249531510   -0.82287262883670
H         5.75469690397105   -6.15245957868068   -2.63476779456214
H         6.96850561383681   -5.65827281497160   -6.04290172539992
H         6.48934386903487   -6.82500938457128   -4.78564582007986
H         7.14050202751255   -5.22349157494228   -4.32445173694536
H         2.87893379188530   -4.33071613173222   -5.21713525273834
H         1.23546958941473   -4.33389272436763   -3.38678559256627
H         0.69647936882279   -3.37915190683905   -1.35376078166292
H        -5.28564897739519   -3.61714984113191    0.22111328629363
H        -6.72584154487970   -1.58362581227193    0.15134398747696
H        -6.86177140003321    0.89312490402088    0.00406265180448
Cl       -0.64316717222467   -1.01752998787433   -1.69843813251578
