73
 energy: -105.292957606873 gnorm: 0.000277430792 xtb: 6.4.1 (afa7bdf)
Ir       -0.67598422023494   -0.60271582842193    1.75888771682500
C        -1.28452940064826    2.82880215858808    3.63947587215453
C        -0.59903064165047    1.51024405820150    3.73429082566150
C        -1.38269461947220    0.24794501929184    3.78915883035466
C        -2.80455630729633    0.18045655418549    4.27531396841536
C        -0.49429011769671   -0.81353163799641    3.93090251771226
C        -0.81636863959047   -2.18138979939278    4.45118241724779
C         0.91731610583501   -0.25543934327478    3.99030618570489
C         1.75661421648739   -0.68787900943671    5.17069081704765
C         0.72123398495732    1.24022568353015    3.83368411745557
C         1.91708561623636    2.14105772407660    3.75000475553385
C         1.96681482211306    2.91914113644870    2.42671559278972
C         3.24994102959385    3.74127723294935    2.34823616630560
C         3.34309379908082    4.70355690342585    3.52956413431339
C         3.28853866121411    3.93578461754798    4.84782803821913
C         2.00880144996509    3.10903844141115    4.93856623398370
H        -1.89328150197013    2.87740545845071    2.73819190986637
H        -0.57445578221257    3.64655520224404    3.62145907750914
H        -1.93707657835280    2.96535619884534    4.50091536665096
H        -3.36958107046972   -0.60339579572072    3.77807797422787
H        -2.78416936130666   -0.05412706173174    5.34060313917449
H        -3.32080817898050    1.12803384636120    4.16228995932159
H        -1.79662666945110   -2.50586792289084    4.11307225145020
H        -0.07174574592910   -2.90980692607999    4.13802512979002
H        -0.82817551241244   -2.15825624313087    5.54180611969164
H         1.84358362129123   -1.77007932340289    5.20974449462548
H         2.75407417580472   -0.26047254190441    5.11404237612546
H         1.28020851524295   -0.33617447804440    6.08347309876351
H         2.81152755376750    1.50814617317966    3.77760389992899
H         1.11088059458045    3.58770324580924    2.34606309327349
H         1.92333710401106    2.21857432305683    1.59038168254791
H         3.27172221681819    4.30093991580973    1.41072283705605
H         4.11601026070072    3.07481889806103    2.35718248966890
H         2.51414025950635    5.41423397559146    3.48750129298130
H         4.27181802576642    5.27526140884828    3.47131174208047
H         3.33484625246041    4.63348982697267    5.68651685485949
H         4.15783837601390    3.27705761901664    4.91727388132769
H         1.14904908627151    3.77852566209947    4.94451906847799
H         1.99798081105032    2.54493382349139    5.87304295244182
C        -5.87196635539624    1.79776327961530   -4.31187734234054
O        -4.96519633026495    1.30423258090007   -3.32816520888088
C        -5.20609539752066    1.63686773228693   -2.06163541474858
O        -6.13559353217006    2.32392381174112   -1.70353784874367
C        -4.19080611144948    1.07295757336650   -1.12979604247401
C        -4.25899805029010    1.38646227435217    0.23227245999431
C        -3.32550191062824    0.85803001044756    1.09820880373685
N        -2.32862047061932    0.05173613820211    0.71674498386774
C        -2.24671002529358   -0.24060011447329   -0.62133322581116
C        -1.15525918444865   -1.08774983109189   -0.96014768684572
N        -0.33343932974970   -1.37612259851450    0.01492816612979
C         0.71954328578630   -2.27463840964403   -0.24009842486859
C         0.90190350972447   -3.36853671982609    0.60558564374241
C         1.91314835732967   -4.27227032878775    0.35784061104157
C         2.77730619719364   -4.10529662953434   -0.72280934513905
C         3.86423270878112   -5.10030544616032   -0.97823066008438
C         2.59123641122911   -3.00754883712860   -1.55493299547726
C         1.57015313444177   -2.10318837128751   -1.32827505504783
C        -3.16456706525337    0.24511543254550   -1.55319823402257
H        -5.43105706728346    1.55484910006961   -5.27452442741580
H        -6.84460834580213    1.31546571827341   -4.20128099121629
H        -5.99782185745388    2.87620265358278   -4.20209537459719
H        -5.04503448760364    2.03101640633825    0.59013944258168
H        -3.39006629753939    1.08612209683854    2.14657678691367
H        -1.04104842175765   -1.50887617523121   -1.95025826506024
H         0.22221568510977   -3.51475109768765    1.43220721076406
H         2.03793410110190   -5.12542766037338    1.00738269410198
H         3.43306185862711   -6.04520373596932   -1.30835419630383
H         4.42756067570364   -5.29595545207361   -0.06784260227460
H         4.54698351952710   -4.74801059852675   -1.74666566716500
H         3.25174645101213   -2.85720205121223   -2.39573852469288
H         1.44724455868881   -1.24751959832485   -1.97484692413650
H        -3.06233642610372   -0.02030382988142   -2.59214966420261
Cl        1.63031502152266   -0.87052251937550    2.43031843625670
