72
 energy: -111.310232327569 gnorm: 0.000363912928 xtb: 6.4.1 (afa7bdf)
Ir       -0.32956806208553   -0.32517798477588    1.74974901089534
C        -1.63897369505016    1.49153537542373    4.32574334286162
C        -0.45464833179426    0.84516234042494    3.69357994363321
C        -0.01433282793212   -0.49967596620537    3.94154435379015
C         1.27435482163019   -0.66784649101120    3.31451083527808
C         2.19491767841342   -1.81316081919593    3.56025497659367
C         1.56361127567645    0.51251690014503    2.58083319779894
C         0.48218402489608    1.46331052222345    2.81615388783008
C         0.55675658717971    2.90015790690370    2.50531989674197
C         0.56795620062019    3.81481117186499    3.55796348410990
C         0.70913795437905    5.16539723761486    3.31027061259766
C         0.84035066161896    5.64377635914572    2.00763222666486
C         1.01624272048113    7.08060291038274    1.74791156436829
C         1.92497045975959    7.51800436625666    0.78594688240270
C         2.10324724190733    8.86827152303044    0.54753532884512
C         1.37212509325700    9.80434480095906    1.26085670233129
C         0.46311908131046    9.38088095506075    2.21677966927434
C         0.28849413475306    8.03101923032188    2.46134601176825
C         0.81283189365940    4.72591263917629    0.95877348515818
C         0.67451844168067    3.37398791677980    1.20184145269728
C         2.84659551002480    0.85605092767663    1.90589479314109
C        -0.62396681847110   -1.43021861086068    4.93411077384800
H        -1.43284814636722    1.64670428206723    5.38513303468569
H        -2.52305629023974    0.86161831060231    4.25376973143070
H        -1.84175006484088    2.45732722150560    3.87068153428375
H         2.71982070408297   -1.64020853115207    4.50053802588529
H         2.93405138121132   -1.90728621820741    2.77045218647934
H         1.65264434889007   -2.75137552676452    3.64511510770806
H         0.49748995318136    3.46225264637090    4.57567565980270
H         0.74516487488889    5.85781956144871    4.13801831950617
H         2.51103025603714    6.79554338423066    0.23660480254135
H         2.81653723234820    9.19306808519973   -0.19644141316295
H         1.51110960312165   10.85897985662077    1.07294127600998
H        -0.11172884308198   10.10723896352235    2.77315491417716
H        -0.43265135458915    7.71054146360760    3.19913906365027
H         0.88718195900941    5.07819303363613   -0.05916349880946
H         0.63352712318469    2.68014484319540    0.37665100226181
H         3.43193560097339   -0.03357383714835    1.69262695186284
H         2.66446831667341    1.39204765954094    0.97782799278712
H         3.42765425802880    1.50833447956742    2.55858597851972
H        -1.70390268881981   -1.31634714559465    4.96674499906185
H        -0.38128079644833   -2.46395696245818    4.70490587054702
H        -0.22971861490505   -1.20330744797686    5.92549826290568
C        -7.13249906462198    0.21130308202623   -0.14084656291720
O        -6.16670568666834   -0.82983620891754   -0.20256447941293
C        -4.94178692216646   -0.61828132389962    0.25964758372180
C        -4.47271627940954    0.57947567658408    0.82329703303451
C        -3.17196975984891    0.65244262198821    1.27447805213512
N        -2.32191309352525   -0.36862800419777    1.21856570232536
C        -2.74634832800723   -1.52780644668627    0.65021306278697
C        -1.72173009043538   -2.53035646304511    0.56224314069829
N        -0.54970655900855   -2.20475146920682    1.00193200498696
C         0.51300990798281   -3.11428850178255    0.92169417216090
C         1.73295271745798   -2.69044032150775    0.39392824222561
C         2.78831711178997   -3.57458795524031    0.29065528088051
C         2.63296466136503   -4.87852819396549    0.74045840488092
Br        4.10627497927238   -6.10319811097822    0.61607979002197
C         1.43017804727220   -5.30934098329850    1.28119787801596
C         0.36707588649927   -4.43025661752269    1.36223240297818
C        -4.03541930964514   -1.68488938407747    0.17136771206057
H        -7.32173418588827    0.50836094243048    0.89273738460607
H        -6.81660139029763    1.07524573878921   -0.72916046971162
H        -8.03813758077603   -0.21014859882860   -0.57099656139472
H        -5.10348149704287    1.44785387769937    0.90929183826211
H        -2.79610253147175    1.57213836646197    1.69749397770312
H        -1.91500497007079   -3.48949395993820    0.09598606298793
H         1.82719858410082   -1.67687161544065    0.03508235290446
H         3.72616687033220   -3.25646588848516   -0.13558298986093
H         1.32591058645194   -6.32335992680565    1.63226505011275
H        -0.56780295311145   -4.75601616980719    1.79143156114483
H        -4.35052142439300   -2.61211740416896   -0.27769804324653
Cl        0.01873441562709    0.32746190863715   -0.52790081887130
