68
 energy: -115.109416752525 gnorm: 0.000306242534 xtb: 6.4.1 (afa7bdf)
Ir       -0.41202495767059   -0.76347729615489    1.49408192511866
C        -1.92008621317667    1.12159147977218    3.92618612928117
C        -0.67443982074053    0.53066441869817    3.36416128553013
C        -0.15897960368680   -0.76430656308718    3.71101546650056
C        -0.74252393314623   -1.67168154518398    4.73953396583692
C         1.15361701863569   -0.88847890889302    3.13196394333811
C         2.15938492829637   -1.93194795328900    3.46999293416431
C         1.40063874684019    0.26484812691186    2.33991737584088
C         2.70907826837759    0.60843554089722    1.71802256727566
C         0.25672980888798    1.15386355131523    2.47863819701109
C         0.24272467828979    2.56086920068340    2.04752694045543
C         0.02645129491360    3.56279781500814    2.99260047684350
C         0.05683031484148    4.88419666438433    2.58968704597135
F        -0.15206385827965    5.84600622816235    3.51201416763226
C         0.29231798577019    5.26013742399824    1.27926651988518
C         0.50346604724121    4.24270420988636    0.36495800089599
F         0.73351714026464    4.57162366181083   -0.92216025796376
C         0.48374701030093    2.90696048596738    0.71838395414302
H        -2.21400261269986    2.01608574554662    3.38572454573327
H        -1.74504537647923    1.38294531246796    4.97047031352116
H        -2.74031327541609    0.40779139789268    3.90223604699869
H        -0.41711098456225   -2.69619328201816    4.58464857885115
H        -0.40524309112904   -1.35568200006279    5.72722876240505
H        -1.82797126215595   -1.63431569481086    4.72639747804576
H         2.70357210466930   -1.61022637872467    4.35892892814444
H         1.69061369209818   -2.88697204315473    3.68868191589074
H         2.87492804978562   -2.06527198515841    2.66417617351347
H         3.03195009801631   -0.16703102978338    1.02710618434952
H         2.65019522585789    1.54981965215841    1.18086813667748
H         3.46380609196981    0.69536586090712    2.49982325813176
H        -0.13576889590583    3.32932425854143    4.03166840115477
H         0.31307500027308    6.29595741010735    0.98454532536124
H         0.62463446194498    2.14960110322019   -0.03800054154723
C         0.54358282560371   -7.34748649283333    2.96410568675159
O         1.69435075925123   -6.85422491298890    2.30021391705626
C         1.63882596593511   -5.65176567661369    1.70292275702342
C         0.53689974110314   -4.80307706475817    1.68509226472893
C         0.60623303636049   -3.56481772245644    1.04087137324375
N        -0.51150360097808   -2.71919759948855    1.01147363338158
C        -1.67916533671123   -3.19049250163591    0.70723907051048
C        -2.75738404579087   -2.25361646683910    0.62487450491043
C        -4.06974734809731   -2.62453600198375    0.27302975994224
C        -5.02646218762811   -1.65534318858305    0.16242923979782
C        -4.66483137378034   -0.30233700301971    0.33378596234479
C        -5.58824680816741    0.74883174730816    0.16795180605874
C        -5.19099310562285    2.05348498317268    0.28465547008653
C        -3.84701727389080    2.35655064756960    0.55597774791068
C        -2.92935224768917    1.35928157749006    0.74875194506186
C        -3.31051273378464    0.00697186776487    0.66445144934477
N        -2.40425193714869   -0.98113452478007    0.86733489518737
C         1.77550243473429   -3.15565976457103    0.40747064961719
C         2.87233923303466   -4.00003347087416    0.39741656030978
C         2.80050921023598   -5.21855433327804    1.03784886061130
F         3.87836179349261   -6.02729404004894    1.03456467666262
H         0.26333942442051   -6.70177782826221    3.79950323327489
H        -0.29433978268616   -7.45705437999569    2.27176202648640
H         0.83016927513986   -8.32573006813961    3.34336062761706
H        -0.37333148063499   -5.08095753425046    2.19148974722438
H        -1.82531087830305   -4.23290383415651    0.45018135350116
H        -4.29416671628310   -3.66496330755477    0.10514325426665
H        -6.04920178288794   -1.90316150022957   -0.07617562609938
H        -6.61195047154745    0.50214278277657   -0.06781698943875
H        -5.90048172723311    2.85482635094715    0.15095443573418
H        -3.53599452367891    3.38831541657501    0.60842739043207
H        -1.89144444544451    1.59455492751858    0.91841460536608
H         1.79859756483263   -2.20884835620659   -0.10769872190252
H         3.78599796463554   -3.72493392067854   -0.10404956554922
Cl        0.05387349699157   -0.27921667492115   -0.79010014643722
