89
 energy: -121.836069499315 gnorm: 0.000327233424 xtb: 6.4.1 (afa7bdf)
Ir       -0.59255077968169   -0.49100451124425    1.94535198299729
C        -2.58632830506465    1.50325509580732    3.87370867967118
C        -1.34568616339584    0.69145559804778    3.72987429224788
C        -1.24010398629433   -0.70628337603920    4.06874187120779
C         0.14186068290508   -1.06079909332714    4.05130408436141
C         0.69372992586927   -2.32463349551554    4.61237693153629
C         0.88021764461026    0.05829477017954    3.55029713610224
C        -0.04975761131999    1.16618721704715    3.39259624517898
C         0.33583686082123    2.57277393515405    3.19635973665948
C        -0.02367002233190    3.51560225867650    4.15852276357137
C         0.34839630515775    4.83751610404641    4.01819208190851
C         1.09040493433564    5.25816315723370    2.91589091344381
C         1.48763773842410    6.66622781027375    2.76895724244697
C         2.76379646529515    6.99930879050556    2.31920085703402
C         3.13965127075825    8.32338368473056    2.18612872271121
C         2.24533252966269    9.33616013145943    2.49261485869831
C         0.97297213489440    9.01635406313173    2.93764391349953
C         0.59776559090729    7.69295134896776    3.07810671129595
C         1.44801431228712    4.31138270671868    1.95733416764302
C         1.07784967939520    2.98816675390846    2.09299173472557
C         2.36340998652783    0.21032850071068    3.54317804179134
C        -2.34252009075504   -1.53633106659688    4.63543958730545
H        -2.78342339104922    1.65816580853688    4.93553984631565
H        -3.44914599073687    0.99064204977709    3.45373391657701
H        -2.47287934089731    2.47306520060071    3.39787818293290
H         0.54291571247403   -2.31650389399901    5.69269831301324
H         1.75752509279147   -2.41377571018080    4.41891363217540
H         0.18117359003227   -3.19783317061922    4.21489011373355
H        -0.57287987152558    3.20516465110765    5.03437957138960
H         0.08127808842977    5.55074006362926    4.78368472617838
H         3.47264241432624    6.21598534982905    2.09291816889922
H         4.13477828863173    8.56782470096290    1.84342360935917
H         2.53913839851023   10.37006364338856    2.38578458624364
H         0.27123226010712    9.80301081424916    3.17499757620495
H        -0.40086269359727    7.45308134465192    3.41257312644941
H         2.00354798641347    4.62085218186198    1.08454230559633
H         1.33419228962980    2.27781488332600    1.32154259564132
H         2.86524080062430   -0.74950277804077    3.46267689348195
H         2.68465023331305    0.84502468509592    2.72187656417700
H         2.67428977796238    0.68626457785448    4.47457288448480
H        -3.30023609426555   -1.27068753435364    4.19464383090428
H        -2.15939660659524   -2.59484714433607    4.47046973912655
H        -2.40773951487747   -1.36793844533345    5.71123910744550
C        -1.76648003247627   -2.81876344533218    0.96629016830191
N        -0.57391771281100   -2.37017004401453    1.11958166229961
C         0.52417616271329   -3.24134050673680    0.73492173360989
C         1.86792671700500   -2.80325828750578    1.32602479238542
C         3.03929437028994   -3.13432812567010    0.39474448537949
C         2.79465548150448   -4.46320265801801   -0.31066846214565
C         1.59403802319039   -4.34295726755758   -1.25885885868110
C         0.61815442226044   -3.25566053242323   -0.80088246777740
C        -2.89143567467087   -1.92151975186846    1.04254733467171
C        -4.18734780116210   -2.39581366070358    1.07860241669886
C        -5.21780849200366   -1.45801272295352    1.17200058604044
C        -4.91359603601416   -0.13238139431381    1.04579421131511
C        -3.56811874501271    0.29778260541198    0.82343003642805
N        -3.34332899488457    1.56043096053356    0.44637063273234
C        -2.02504337914156    2.15172798924116    0.33668926645650
C        -2.10461629532519    3.65599552221883    0.56565279207382
C        -2.89403816235382    4.33285207730915   -0.55833409159104
C        -3.91905025920119    3.34972153141892   -1.12887376751220
C        -4.43087489529093    2.39665532648225   -0.05144479087623
N        -2.56565892965283   -0.59941025814957    0.99852420544055
H        -1.95344949120221   -3.85404839602363    0.69414927699307
H         0.28196880881458   -4.25973510687610    1.06554542062794
H         2.01622318673695   -3.30341528193680    2.28209704010988
H         1.84375627829266   -1.72618535953544    1.48830297983339
H         3.16161388785254   -2.34840503305193   -0.35047155732188
H         3.96060375981121   -3.18163496258648    0.97675936243633
H         3.68173343098655   -4.76350082034110   -0.86939529927022
H         2.60822870181245   -5.23367031779002    0.44045792054182
H         1.93604348570289   -4.09472338806380   -2.26437199177902
H         1.07881588402192   -5.30356257956173   -1.31770910931847
H         0.95040010062720   -2.27219734369296   -1.13059432241324
H        -0.36724360037305   -3.43427616316322   -1.23439327613989
H        -4.38236781355574   -3.45403521189568    1.09039745773964
H        -6.23564357629000   -1.77523390618663    1.33379644914163
H        -5.68981273712006    0.60589144556794    1.14479881183227
H        -1.58860250837759    1.94101536043507   -0.64429733939854
H        -1.37228472925008    1.70199478704912    1.08398778810940
H        -1.09441187284405    4.05870738771605    0.62488620293546
H        -2.58694906518167    3.84321277100337    1.52628622980227
H        -2.22122200134550    4.65637545961764   -1.35254559666114
H        -3.39393446144171    5.22142685116204   -0.17159458273721
H        -3.47169941351890    2.76233453954808   -1.93161369183762
H        -4.76799428726381    3.88744058682575   -1.55116772059508
H        -4.87432652057627    2.97149696304031    0.76915004564548
H        -5.19878564245301    1.76276794907446   -0.49756702862518
Cl        0.55004089643431    0.16983575039174   -0.04003520126484
