64
 energy: -93.880049366688 gnorm: 0.000741929257 xtb: 6.4.1 (afa7bdf)
Ir       -0.94425063885577   -0.76041551373209    1.14426472408324
C        -2.23623587513830    1.33442319912218    3.60297555411350
C        -1.09868399564879    0.56970628897384    3.01716119296898
C        -0.79433241828212   -0.80123946957218    3.35754412048255
C        -1.54601946102415   -1.61403872222925    4.35763465788038
C         0.51474003062391   -1.10610787675443    2.84141516784060
C         1.33122813871293   -2.29614665009221    3.20912698089614
C         0.93877899480872    0.00216613692449    2.05832356049221
C         2.27674168343398    0.19833001668029    1.43179462616274
C        -0.06109528246398    1.05221625529581    2.18239715176773
C         0.14935181740149    2.44648172232418    1.69375894351704
H        -2.05556002963549    1.46117909928868    4.67090176437428
H        -3.17593707776644    0.79988879188896    3.48540996656773
H        -2.33631776691263    2.31655253899648    3.15242962605498
H        -2.61203973330687   -1.41025166292935    4.30408710274762
H        -1.38087780507406   -2.67696251201337    4.20382076808904
H        -1.20180727952423   -1.36040791795949    5.36112662577039
H         0.70807508295395   -3.16480743571919    3.40280586940247
H         2.04627192352311   -2.54578131736731    2.43032821813671
H         1.88611109034085   -2.06618436761014    4.11965656299199
H         2.17706548976156    0.67968514585163    0.46138184194721
H         2.79483457028107   -0.74760893667335    1.30471462109642
H         2.88275632687603    0.84389555282083    2.06825760428944
H        -0.71404743913675    3.07596933671910    1.88944427783224
H         0.35531993897320    2.45360135167443    0.62433459176150
H         1.01299261884150    2.87676714056526    2.20112483243995
C        -8.40021942321344    4.60905592243884   -0.27050514612330
C        -7.80501312382136    3.21004162708171   -0.25941752173513
O        -6.42069655161126    3.33050105306855    0.04812512158216
C        -5.65501553905944    2.23553793475288    0.11816547938691
C        -4.28624550505769    2.47597764078515    0.41030303892657
C        -3.40222685069909    1.44972053620243    0.54066910199771
C        -3.81592842385397    0.11060195544196    0.37269105486670
N        -2.93430819431879   -0.90299592179035    0.51136096594887
C        -3.31121325294557   -2.14996515730744    0.17918594897190
C        -2.24846804093155   -3.10387328864442    0.18205100993149
N        -1.07085579476205   -2.67030279406332    0.50741519340675
C         0.03540211686135   -3.52847963015669    0.47070164536161
C        -0.03197889958330   -4.81370156496532    1.01028522340530
C         1.07812613178937   -5.63634283920509    0.96277932387846
C         2.25170421989431   -5.19548601723926    0.37006560588899
C         2.31742039468525   -3.91922232662117   -0.17043816260979
C         1.22052859759554   -3.08022852597258   -0.11271419449584
C        -4.63345517081702   -2.46271811279034   -0.19606049260210
C        -5.56733258063322   -1.46878311427290   -0.24119755238936
C        -5.17670576111173   -0.13505584592083    0.01794190778425
C        -6.07781498710148    0.93623404877735   -0.08249007163193
H        -8.27498316563800    5.07693327307195    0.70195940620013
H        -9.45912898661252    4.55354284142082   -0.50440988102133
H        -7.90272934659905    5.22125459850821   -1.01783033746020
H        -7.92426340601618    2.73676484072103   -1.24198007405362
H        -8.29813996107763    2.59083896810979    0.50027166707970
H        -3.97504696828219    3.50288323085343    0.51480897718394
H        -2.35692006751443    1.64133047022627    0.71790921919048
H        -2.41110909208510   -4.12301439821380   -0.14901685676640
H        -0.94074829197116   -5.14909858422075    1.48714640349350
H         1.02730695852325   -6.62593363254005    1.39074530004467
H         3.11338557727906   -5.84350144720833    0.33155782612547
H         3.22786841525716   -3.57578970146266   -0.63732052827497
H         1.25069876642362   -2.09013424870152   -0.54151831382588
H        -4.88111953502438   -3.48392730459405   -0.43461019447844
H        -6.59399907058447   -1.67903385127078   -0.49799992579897
H        -7.10048988183497    0.71206423670624   -0.33903549743955
Cl       -0.46422420931113   -0.01291006548236   -1.07773162365769
