87
 energy: -130.039967927168 gnorm: 0.000177805932 xtb: 6.4.1 (afa7bdf)
Ir       -0.80171040523064   -0.27609210138678    1.57482932297189
C        -2.38325331382727    1.67847937929658    3.90334431520336
C        -1.19423747342635    0.87265069496769    3.50549872112467
C        -1.04774553164845   -0.54046445861558    3.76413721702494
C         0.29904513306627   -0.90391825479284    3.45354903330854
C         0.96956139599264   -2.18025016343986    3.81771343266049
C         0.93981588309499    0.22903482405457    2.86311076244959
C         0.01999540202288    1.35193127566731    2.94142174246784
C         0.39040510799729    2.75706420801464    2.71575337927254
C         0.24667449003567    3.67962089697934    3.75132560262910
C         0.63146551108926    4.99374672314072    3.57550054722119
C         1.17439205764315    5.42476421154587    2.36629287353936
C         1.59419204810080    6.82277577943610    2.18698050940438
C         2.79276668838419    7.12449591249970    1.54368077789439
C         3.19447116077502    8.43819432441713    1.38510730790776
C         2.40178521554350    9.47132601283659    1.85841696335132
C         1.20523386076074    9.18245536946580    2.49427603667268
C         0.80596013622793    7.86911472627389    2.66135592035460
C         1.31439303766780    4.49880461314214    1.33372838926522
C         0.92680181022345    3.18436734551214    1.50237218532927
C         2.39230261448453    0.32296649934068    2.54831625978204
C        -2.03501065552932   -1.37458244263885    4.50932799821163
H        -2.45605727548119    1.68907817316831    4.99121135579027
H        -3.30249983539861    1.24232141034678    3.51709454342826
H        -2.29237683632849    2.70059615504150    3.54887933912483
H         1.36782133779363   -2.08199803518689    4.82869612043655
H         1.79696185590059   -2.39775231910504    3.14802264509481
H         0.27645030327004   -3.01691850507693    3.80849317615849
H        -0.13996975098297    3.35864557670208    4.70654043126210
H         0.53438487600223    5.69230544396341    4.39307080384953
H         3.42350904553390    6.32387863842875    1.18498240375625
H         4.13062300349259    8.65825938495906    0.89223293873276
H         2.71579222333500   10.49725846916175    1.73278493447435
H         0.58226754590640    9.98536112090848    2.86119836855019
H        -0.13410407316645    7.65223643709633    3.14713604281126
H         1.71252433611125    4.81825815242782    0.38217189352317
H         1.00674009532977    2.48955576800209    0.67993838063012
H         2.73027585741078   -0.54682429617929    1.98936843149203
H         2.60734949075851    1.21851643374179    1.97279609340486
H         2.95824589729710    0.36619062642833    3.47983773138851
H        -3.05375096900693   -1.09719808154445    4.25135448988983
H        -1.89243099943079   -2.43127657819461    4.30020383959816
H        -1.90325099370239   -1.22124562394768    5.58103174944445
C         2.13867851623668   -7.30679332038352    1.70555536521518
O         1.06624754226885   -6.38105092685909    1.70240965344342
C         1.27264377249130   -5.13891410328563    1.22421965095670
C         2.49134456109636   -4.66016885838070    0.74451715681112
C         2.57289079663024   -3.35187902361059    0.29008829691461
Cl        4.09638723228867   -2.76372598383800   -0.30152899995002
C         1.48275979719798   -2.50316219059768    0.29900054349671
C         0.26166736898132   -2.98960896335635    0.76795627958349
N        -0.85120260230447   -2.13805107379868    0.79480381113182
C        -2.01893194618461   -2.57743576722229    0.47566567624721
C        -3.14765697900256   -1.69270759803668    0.55258168033609
C        -4.43206227958224   -2.19280635761679    0.44041543194719
C        -5.49058785131140   -1.31308525735175    0.67054284532381
C        -5.21708175968648    0.01953838964510    0.78730295665175
C        -3.87967374243726    0.51330530402369    0.65210674716507
N        -3.70096836541700    1.81958257985710    0.43674108543379
C        -4.82565334895733    2.66735443647075    0.04783426442960
C        -4.36114851884952    3.78485260459335   -0.88294251353322
C        -3.38184560740229    4.72498199769179   -0.17655197704450
C        -2.55664669822667    3.93097937610022    0.84016232825713
C        -2.41207195793484    2.48008432297475    0.39495546721440
N        -2.85502112079361   -0.37435239555955    0.74198724059150
C         0.15927019328763   -4.29496515570794    1.23261979261514
H         1.72752372153480   -8.22340039820478    2.12290633405472
H         2.96274090395845   -6.95762031088157    2.33254944803121
H         2.49905566270973   -7.49695785676794    0.69149218853841
H         3.37088861339563   -5.28052448951914    0.72102794099397
H         1.55341798978987   -1.49639275241415   -0.07804451556062
H        -2.16646213217840   -3.59179161884993    0.12072989749464
H        -4.59479835444214   -3.23987966809329    0.25411746132950
H        -6.50184795613960   -1.67798554106744    0.75271622923403
H        -6.01002390706233    0.71157355953533    1.00975170272958
H        -5.29623126089413    3.10146528540927    0.93663846223885
H        -5.56212664072483    2.06661707191666   -0.48803666753492
H        -3.88958750452412    3.33914899314556   -1.75925653697938
H        -5.23594219972258    4.33586794135201   -1.22840066498312
H        -2.72986005721958    5.19083668320290   -0.91521051583656
H        -3.92217550012225    5.52345267994073    0.33273450907710
H        -3.04797089067938    3.95533453900908    1.81353638397852
H        -1.56572292278605    4.36765500413869    0.95810061135875
H        -1.72327833921255    1.95175918995991    1.05269698986050
H        -1.99127576793082    2.43487845839176   -0.61384872993894
H        -0.76567244752265   -4.67810619092344    1.63194167393032
Cl       -0.03359932073474    0.40349565813526   -0.58608699608444
