76
 energy: -103.564992750158 gnorm: 0.000628060422 xtb: 6.4.1 (afa7bdf)
Ir       -0.70896138657722   -1.68993840379029    1.46601353312752
C        -2.01884818847807    1.93692481847361    3.00899138808722
C        -0.80453206083327    1.13357655576564    2.75048932284041
C        -0.71419458276576   -0.26269191056530    3.09834976251857
C        -1.50597917150839   -0.80111518656661    4.27475726662531
C         0.65295183617259   -0.68385291226647    2.77873673884222
C         1.46862863524725   -1.51162093385797    3.74865655011181
C         1.28949407478646    0.48654685906976    2.16144775048817
C         2.64466720204852    0.46619119897327    1.56760835098670
C         0.41810703286660    1.57009389104779    2.19866218545419
C         0.77735292841167    2.93736708188967    1.69015496363348
C         0.00119282626182    3.33881439499164    0.42932660698447
C         0.51796654487266    4.67502325306230   -0.09618704683960
C         0.39271312982866    5.75941959458145    0.97161001268470
C         1.14603554293508    5.35600854444118    2.23686636197843
C         0.62872927446372    4.02098090762257    2.76654279107028
H        -2.91224876311636    1.32830120810631    2.89258072941345
H        -2.08416265288805    2.79432160964375    2.34846605067672
H        -1.99742341482934    2.29974159577658    4.03866169621495
H        -1.09723218758286   -0.38899722414525    5.19807072355282
H        -2.54959232054723   -0.50598983993152    4.21465703760415
H        -1.45834494060270   -1.88616821898120    4.34636470859594
H         0.92845944892206   -2.37933143851209    4.11598496012248
H         2.40578331747837   -1.83788156507174    3.30665483978725
H         1.71041219181083   -0.88369572185581    4.60779084138576
H         3.05062659943592   -0.54007223915436    1.54675776735216
H         2.61663297148138    0.85303450269450    0.55014400415512
H         3.31548559331702    1.10377674532293    2.14449000689237
H         1.83567457177324    2.90869386377849    1.41335791389426
H        -1.06310228400234    3.43101409127949    0.64600724739837
H         0.11627788977923    2.56375280374717   -0.32983700583562
H        -0.04444836061058    4.96479407868108   -0.98672963536539
H         1.56680222396658    4.57421959699568   -0.38586952341482
H        -0.66248305554004    5.91469106432745    1.21026426411938
H         0.78721708953964    6.70393796979090    0.58976144280058
H         1.02792840165132    6.12801311035067    3.00079093083295
H         2.21204207324827    5.27399956546482    2.01107335953228
H        -0.41593159117559    4.13697968688174    3.05143975458113
H         1.19170685282119    3.73297851513615    3.65683037857638
C        -0.44070244787768   -4.51833816382400    2.49912758325205
C         0.98838699564135   -4.87838101521544    2.09806551666035
C         1.61701127056435   -3.96881478524876    1.03415739892191
C         3.01470911502320   -4.46691941448154    0.63406769094498
C         4.03414046718766   -4.42385155732052    1.76840137900903
C         0.75726856247676   -3.84632073467038   -0.22921958790430
N        -0.47172947089959   -3.13583536710140    0.00833471020182
C        -1.48229958077995   -3.35055625762381   -0.74797916344745
C        -2.72553163297615   -2.68997257228144   -0.44789597878424
C        -3.84431046410327   -2.73604408883730   -1.28275141985009
C        -4.98667617126268   -2.07800314971871   -0.88865417340749
Br       -6.55949423769839   -2.08823929986551   -1.96425038213428
C        -5.01607249411133   -1.38289153074590    0.33773163131355
O        -6.15408052300297   -0.77559900810943    0.66479346051839
C        -6.24188741554198   -0.05028578025264    1.88167907703620
C        -3.84779927185881   -1.40842040088525    1.10598685317270
N        -2.74882580401663   -2.03878792013726    0.72593449609928
H        -0.67260500747150   -4.92923235015018    3.47940618798040
H        -0.57454957091239   -3.41289650704154    2.56531441715314
H        -1.16700049978866   -4.91055960224144    1.79206208910973
H         1.00077915817465   -5.90975401109411    1.73970552938521
H         1.62157836479304   -4.83292220708901    2.98416759267160
H         1.71880026468948   -2.95832189252558    1.44865993937358
H         2.93996588085697   -5.48896754108150    0.25717661982924
H         3.38561456196939   -3.84295336955536   -0.18175274443314
H         5.01687122255930   -4.69100932832771    1.38775195260349
H         3.78465854239412   -5.12384553662266    2.56047195161431
H         4.09818871988396   -3.42453423821808    2.19189876256920
H         1.32390511639133   -3.26800616426701   -0.96826230473364
H         0.55465075596434   -4.83416856088369   -0.65627248809161
H        -1.44077932666110   -4.03988429875021   -1.58708960158375
H        -3.80740961874284   -3.26496501893925   -2.22074084054881
H        -6.09160697182024   -0.70737040253134    2.74126798201319
H        -5.52368609132253    0.77222557343420    1.89738918512751
H        -7.25297602881599    0.35058503532468    1.90337740139683
H        -3.80203245269116   -0.91268915315412    2.06284611217029
Cl       -0.52549620860139   -0.14647289282378   -0.24580886669589
