82
 energy: -131.899173147757 gnorm: 0.000657761963 xtb: 6.4.1 (afa7bdf)
Ir       -0.51806601134638   -0.80232905072064    1.49427491744806
C        -1.76388522389324    0.88328229140274    4.18188508820694
C        -0.58949476313012    0.27875250406250    3.49395479728563
C        -0.14688927866246   -1.07561712759876    3.66850030730552
C         1.11936782033759   -1.21738512184783    2.99276247338203
C         2.07228722303193   -2.35025985602829    3.15221481445248
C         1.41242044154396    0.01060334370539    2.33757102354035
C         0.34415311582573    0.94586170385966    2.63698969551939
C         0.42084338473188    2.39324477244076    2.38613797304521
C         0.35425480675745    3.28164503459612    3.45875732928346
C         0.49227176254028    4.63935931536722    3.25171756237892
C         0.69996406835127    5.15239115162781    1.97210070172817
C         0.87154673631102    6.59741601745181    1.75980910974028
C         1.83094358189219    7.07043108605043    0.86637424175332
C         2.00725775485043    8.42860867624762    0.67631701749488
C         1.22330126108986    9.33693222667013    1.36911361595981
C         0.26261311538781    8.87791140566635    2.25560546922634
C         0.09018248360287    7.52009649774687    2.45289380095954
C         0.75396992652483    4.26071863249237    0.90145432359180
C         0.61874351972874    2.90172163808148    1.10262547837957
C         2.70405669049160    0.34178113813626    1.67729570067701
C        -0.73681940484013   -2.06094664656586    4.61904080658990
H        -1.53124999019128    0.99741504593406    5.24125729216451
H        -2.63926902913367    0.24238925206370    4.10636294264795
H        -2.00231623569285    1.85877665852688    3.76902624604450
H         2.68838898846594   -2.16006988868918    4.03205811855597
H         2.73067334844913   -2.43137256322185    2.29205646793236
H         1.55645877101706   -3.29497689708235    3.29740344908613
H         0.22925631782885    2.90444769989950    4.46149035321066
H         0.46748859220043    5.31085629022506    4.09658019109221
H         2.45805412357087    6.37024576811244    0.33395251513115
H         2.76065676759456    8.78117692433769   -0.01327799008588
H         1.36090342079449   10.39764380309594    1.21848786612542
H        -0.35376900947395    9.58256923390614    2.79509302008626
H        -0.67045134081612    7.17210217730073    3.13648067349750
H         0.88997458586483    4.63796158540479   -0.10083862728515
H         0.64298301923443    2.22841145491739    0.25836699014420
H         2.93645734310929   -0.36456182321445    0.88293785471048
H         2.67816274325812    1.34215969211318    1.25544168990453
H         3.50452338144655    0.29093129494373    2.41599079864542
H        -1.81553854250518   -1.94901955902993    4.68206782020549
H        -0.49831296928465   -3.07942393615470    4.32537768987623
H        -0.32040865752943   -1.88974726956961    5.61235937300544
C         2.88713005118309   -8.05494221929010    1.20708724713990
C         3.07898155030934   -6.69828271430272    0.62152783294010
C         4.21720150112283   -6.35551417578028   -0.02661463685461
C         4.43433984836777   -5.04856110794039   -0.60722401520167
O         5.43827010164997   -4.69399569867832   -1.18550117415081
O         3.41907820086317   -4.13862109559679   -0.48372660145742
C         2.26356219484259   -4.44461277344783    0.14738854284870
C         1.29783380343132   -3.44367857726189    0.20728183912745
C         0.08404622937441   -3.69615418309508    0.82926882367534
N        -0.89049069735504   -2.69234101078176    0.86315676998296
C        -2.11123737627935   -2.96991310291510    0.52944440324587
C        -3.05337695401979   -1.89566021833480    0.54416204844299
C        -4.40435438791434   -2.06534890823905    0.17803728214198
C        -5.23382653748300   -0.98145825645454    0.17037525888495
C        -4.70385973828534    0.29511301326982    0.46538471160253
C        -5.49440781984394    1.45712307322617    0.41167599272076
C        -4.93296589326816    2.68614402616879    0.65032693043960
Cl       -5.89738930084613    4.11860523899690    0.57459251068483
C        -3.56122689495310    2.80020481502855    0.94001729090276
C        -2.78083743671583    1.68132031930692    1.02437968986939
C        -3.32171919866713    0.39826297879677    0.80856906985077
N        -2.54128393581299   -0.70542620669861    0.90046874595650
C        -0.15557091127043   -4.94483696509669    1.42034435949932
C         0.80785328180057   -5.92374823319567    1.37285666199571
C         2.03355785001290   -5.70493377769181    0.72846213625964
H         2.01999962684255   -8.53857605387415    0.76063929903369
H         3.76189773467935   -8.67226970574952    1.02658663830930
H         2.72369562260546   -7.98477351350000    2.28089106805594
H         5.03426852396350   -7.04922290705336   -0.14613217602679
H         1.48457024180238   -2.49106065899929   -0.26339083885765
H        -2.39829086680765   -3.95748336022407    0.18700478647252
H        -4.75698520225673   -3.05032420952937   -0.08087060645613
H        -6.27920383163668   -1.07646796999438   -0.07793133514757
H        -6.54064473887481    1.36924736162084    0.16618078800692
H        -3.13031125025156    3.77670598298617    1.08935720759989
H        -1.72382484854929    1.77576067605380    1.21000060784757
H        -1.08852569956144   -5.12309446939010    1.93167750394203
H         0.61707080053018   -6.87751456802430    1.83614936190354
Cl       -0.02159228208224   -0.22043342096446   -0.76239100788894
