67
 energy: -88.570432228868 gnorm: 0.000575161053 xtb: 6.4.1 (afa7bdf)
Ir       -0.44916159475817   -0.61620828188607    1.94519096724372
C        -2.87741905065916    1.15307576613783    3.63940365861855
C        -1.48836099054624    0.61676365071582    3.55526671789565
C        -1.12949584041299   -0.67997405703003    4.07160936382683
C        -2.06807772730666   -1.60650691861336    4.76849160310394
C         0.30738922330473   -0.76958014863062    4.09190333550829
C         1.09978049060099   -1.79741211348735    4.82660258720566
C         0.82154749934961    0.39965289573345    3.47289878148331
C         2.25948708916720    0.79007939758534    3.39415920603910
C        -0.29785274024358    1.26909251781062    3.12915168863933
C        -0.09804230176633    2.70060626498183    2.70916141115067
C        -0.90064154396140    3.14584999470590    1.48239502061847
C        -0.51732499626860    4.57594110878285    1.11095476480932
C        -0.78350682681586    5.52252620547560    2.27919452267153
C        -0.01606096408908    5.07255675084057    3.51975402088258
C        -0.38478167183006    3.63930562556410    3.89224629568451
H        -3.60394203113816    0.43391861022533    3.26615675150548
H        -2.99070565060119    2.08640071899479    3.09984842959163
H        -3.10849942772000    1.33660395054830    4.68973450994287
H        -1.70744362720119   -2.63079544737390    4.74111418978860
H        -2.15830805083521   -1.30663782754946    5.81329598154664
H        -3.05756703661707   -1.57314779285134    4.32170235953952
H         1.32884682384614   -1.40685971299880    5.81924150889689
H         0.53761216973035   -2.71791080068871    4.95548937494548
H         2.04152118733749   -2.01467480446783    4.33003280857253
H         2.90674921307644   -0.04033657655578    3.66006823175818
H         2.51838891711503    1.12365895858944    2.39070388052251
H         2.45160747661319    1.61156861908093    4.08447329890207
H         0.95771258641102    2.81443244780341    2.44492405858419
H        -1.97140819793475    3.12021983461746    1.68580051922392
H        -0.68564723387470    2.47639681385194    0.64799189642109
H        -1.08790654794137    4.89585536313883    0.23669323679926
H         0.54185868809695    4.61369002850493    0.84606350830145
H        -1.85367407594499    5.53788200069530    2.49996430446907
H        -0.48734610975155    6.53818449339087    2.00898770093640
H        -0.23913594409163    5.73786175719095    4.35644003824296
H         1.05691313525355    5.13548899444112    3.32291712026635
H        -1.44226242550948    3.59495859176141    4.15486221781135
H         0.19130637786412    3.32264166023792    4.76397697618402
C         4.36666633702429   -1.36576696815223   -1.00951225153926
C         4.04459079533223   -2.46584611963370   -0.35564130330934
C         2.63694456835049   -2.91737738525339   -0.11290080930315
C         2.30435581815857   -2.84520967882760    1.37998028551253
C         0.90357289654798   -3.39048807080930    1.69112270937054
N        -0.12959517927989   -2.49928232304666    1.22500385094002
C        -0.83958452759981   -2.84044909830148    0.20515136854678
C        -1.85608142960313   -1.92301590053686   -0.22628464132274
C        -2.68052665095062   -2.11638085024056   -1.33420525575820
C        -3.61523581249100   -1.14883012767378   -1.65163474040901
C        -3.69616410923039   -0.01322541593964   -0.85289290584633
C        -2.84407147697250    0.11425612080678    0.22975198008654
N        -1.94701722764414   -0.81472295708740    0.54866809840645
H         3.61297101627528   -0.71454249560796   -1.42159139367088
H         5.39031244137498   -1.06580036763211   -1.15968777761548
H         4.81712206641588   -3.10148809196219    0.05901784929592
H         1.95186248459124   -2.27831150605506   -0.67063846316732
H         2.52910192927303   -3.94771225504146   -0.46227341384618
H         3.03170259131431   -3.43068615351099    1.94383277299841
H         2.36845450046104   -1.80407038844224    1.69963977036393
H         0.78683037267047   -4.37414765004150    1.22564669397514
H         0.79481088469002   -3.49408593581180    2.77162648674856
H        -0.68896960582692   -3.78101379712913   -0.31385510397931
H        -2.57068095645209   -3.00859485309188   -1.92902085092892
H        -4.26457472454741   -1.26952385483849   -2.50422610140583
H        -4.40940556888036    0.76622626574717   -1.06527042815830
H        -2.88090529605451    0.98979049146288    0.85885544479926
Cl        0.79615559318249    0.19382782739235    0.07912228106974
