72
 energy: -111.606082152725 gnorm: 0.000236833621 xtb: 6.4.1 (afa7bdf)
Ir       -0.07057153676268   -0.21270102087970    2.41962631184962
C        -1.97791580694070    1.75676657235288    4.54260327724639
C        -0.68046811955783    1.14740726891612    4.13492667077023
C        -0.14486310208910   -0.08555107499056    4.66679265504233
C        -0.82658384306992   -0.94505106342898    5.67520863681674
C         1.23750237337410   -0.16612961337153    4.29347343906692
C         2.23157384860275   -1.12683560568416    4.84342565140483
C         1.53025640091411    0.93940079722622    3.43752790901704
C         2.88316310361942    1.31555870643752    2.93405795343822
C         0.34321839525701    1.77783823936815    3.37890389041218
C         0.28448915030327    3.12892366144855    2.80286321036235
C         1.22317076124482    4.07644506359339    3.20648086076722
C         1.16053154647107    5.35269793487327    2.68075557351313
F         2.07408748706532    6.26139182715566    3.07985100814965
C         0.20058449616356    5.73416030904086    1.76067967645054
C        -0.71740798203247    4.77100357224978    1.38096167707961
F        -1.67093200654799    5.10325856138334    0.48631990398496
C        -0.69956119672814    3.48412445994987    1.88369935119142
H        -2.30132797123387    2.51556603238002    3.83551942244741
H        -1.83912747319546    2.24121811878237    5.51052192380121
H        -2.75418726310194    1.00540314123183    4.66374773760450
H        -0.44017823137582   -1.95974738225733    5.65503981241834
H        -0.64995531174795   -0.53419928185761    6.66997709002638
H        -1.89945728755547   -0.97426035514146    5.50872237154132
H         2.66353594353994   -0.69055591792014    5.74519033927732
H         1.76556407248796   -2.06791321126240    5.11897864794795
H         3.04252617232452   -1.31147921117659    4.14553002632014
H         3.43896099357018    0.44056776787670    2.60605372740217
H         2.80301900952238    2.00948374091809    2.10186173501630
H         3.45477602572263    1.78906917240103    3.73252951385072
H         1.98367302825277    3.83976169500514    3.93181493942541
H         0.17188439863676    6.73218906879735    1.35648589966888
H        -1.41408353809452    2.76312204521244    1.52056422469642
C         5.61301426228317   -7.12343486920434    3.35584141037378
C         5.32538917261604   -5.81488408641743    2.62807931434054
C         3.86264492172999   -5.39512779871240    2.76540122512213
C         3.58180125078640   -4.08241479271583    2.03538332853913
C         2.11909953897666   -3.66184496696872    2.16336896624882
C         1.86249275612676   -2.35766952683945    1.39262755581421
N         0.49080003621646   -1.91917157448215    1.51462473251972
C        -0.41956488623805   -2.55721729665656    0.86076211340515
C        -1.76336839715870   -2.06475498679852    0.95648706325488
C        -2.85857360172371   -2.61784262275528    0.29764499017058
C        -4.10105837790797   -2.01536951186715    0.43264883227561
C        -5.27871566387054   -2.61828288740951   -0.26989434692720
O        -5.20189307595055   -3.61127881557046   -0.95357211258190
O        -6.39330467038127   -1.93803514564896   -0.04247892031095
C        -7.58779801934538   -2.41870878786986   -0.65962638960764
C        -4.20401066163088   -0.86238826841615    1.21406747489809
C        -3.07065447236639   -0.37348210305331    1.83667912511651
N        -1.87913795056672   -0.95742646111061    1.73132707150259
H         6.65796818064442   -7.40252307078405    3.23986079873559
H         4.99913963812985   -7.92794119950177    2.95605476942629
H         5.40142358634247   -7.02689528473762    4.41866283027697
H         5.57154758612430   -5.93080635788743    1.57005193982353
H         5.96872697707125   -5.02980513664225    3.03197122991510
H         3.62036316812308   -5.28676851500708    3.82438626232941
H         3.22619000455766   -6.18354806904821    2.35839123765854
H         3.83650367632401   -4.20083024659190    0.98042769290747
H         4.22855865548953   -3.30353863691759    2.44336432489328
H         1.86614170756605   -3.52223571027358    3.21365746420552
H         1.47926270053433   -4.45056698701105    1.76604530155956
H         2.51174228735745   -1.56931079515327    1.77317688565049
H         2.09875937116022   -2.51235158869830    0.33561805486253
H        -0.18634245245154   -3.40488731382892    0.22652773130711
H        -2.75268906571697   -3.49899119522066   -0.31591921497602
H        -7.72651353308065   -3.47789390916962   -0.43812742204985
H        -7.52899078552719   -2.28802416246001   -1.74124648605239
H        -8.39768593553370   -1.82521967619008   -0.24534187323092
H        -5.15165450488841   -0.36325196919761    1.33054664312641
H        -3.12498775962197    0.51778203643742    2.44334484420464
Cl        0.16010579822068    0.70332227153010    0.23292848289829
