74
 energy: -113.610958410957 gnorm: 0.000400154475 xtb: 6.4.1 (afa7bdf)
Ir       -0.55917065271753   -1.01431667230258    1.78964932246498
C        -1.89210664313565    0.99141797927251    4.23717979637655
C        -0.70888158834175    0.34553755427563    3.60058131966257
C        -0.23855225563243   -0.96236868641699    3.99014687308518
C        -0.82553580811608   -1.79554597681413    5.07721884974421
C         1.05223336071876   -1.17144084844634    3.38935587830262
C         1.98465106591598   -2.27566430422594    3.74675441866888
C         1.31736640960678   -0.06623603207778    2.53691407406602
C         2.59323911884030    0.19961231472541    1.81285811098055
C         0.21960777579190    0.88947801550741    2.66800054537877
C         0.29821976447008    2.29197021473450    2.12846857208593
C        -0.92052307341144    2.74514968134804    1.31693823244281
C        -0.66892433721691    4.13887887600906    0.74745316448242
C        -0.38853831907691    5.13449552680652    1.87098677989305
C         0.80461732277493    4.67838983211511    2.70694375915239
C         0.56354051701594    3.28244200208273    3.27465069487595
H        -2.73555949678769    0.30606861156971    4.28852357199047
H        -2.19781808753747    1.89212105705646    3.71782429889962
H        -1.62500845703965    1.26047678522732    5.25995579978678
H        -0.56863958207865   -2.84329369388110    4.95045807155792
H        -0.42358488448566   -1.46338636831388    6.03521999761920
H        -1.90643384395446   -1.69634072069235    5.11259621999876
H         1.45127741073317   -3.20668631881599    3.91859559896266
H         2.72883964507240   -2.43704753562003    2.97313493625186
H         2.50261940147445   -2.00624032142451    4.66783022644066
H         3.20429155702889   -0.69608588463083    1.75125336793390
H         2.40028011015540    0.55703239443588    0.80344148418319
H         3.15852834686240    0.96576537676411    2.34381139243775
H         1.15627776042524    2.33257064557566    1.45107763957126
H        -1.81155683295451    2.78685858430350    1.94354895916919
H        -1.09603289813287    2.03734473667339    0.50525048511089
H        -1.53852554995893    4.46312564437691    0.17225328157397
H         0.18471898389032    4.10814793951586    0.06661649607931
H        -1.27009653699118    5.22020131548448    2.51090412794574
H        -0.18893995391834    6.12178528017475    1.44984844963196
H         0.97532464735447    5.38088945774757    3.52518583053237
H         1.70118615514596    4.67126545185713    2.08271089592351
H        -0.29294755864287    3.31120723691512    3.94831042950381
H         1.43375278817766    2.95902733937148    3.84877000494946
C        -8.02345820488390   -3.41125346082438   -1.11239369172915
O        -6.72319710539823   -3.10652221634451   -0.60634036577918
C        -6.48392870309019   -1.84649406696062   -0.26966062842423
O        -7.28220358886013   -0.94449953858340   -0.35712132146156
C        -5.09374890625036   -1.66151371388457    0.25578362842052
C        -4.73154165322792   -0.42259152595138    0.79203354963636
C        -3.45173510451118   -0.24658263565677    1.28040860915405
N        -2.53943371193152   -1.21661864790335    1.26633566379488
C        -2.87157112229544   -2.41754009311180    0.72594624465164
C        -1.78815746861637   -3.35469524182190    0.70025138561347
N        -0.64834864700747   -2.93306243895070    1.14734274344464
C         0.46669231439669   -3.78388360600756    1.13902573864996
C         1.66265283815970   -3.31937399438860    0.59078212067410
C         2.73916635607520   -4.18142078339764    0.58566753252442
F         3.90365480096168   -3.75474814352735    0.05299515365271
C         2.69459603409614   -5.45825088883371    1.11871038728162
C         1.49691681865306   -5.90723123127504    1.67515737472785
O         1.31210651708898   -7.11535084963179    2.23270609062145
C         2.39055547618784   -8.03475313695634    2.26355866566026
C         0.38156783326338   -5.06198048062308    1.67216312337533
C        -4.14474037384541   -2.67160659344558    0.21607054528795
H        -8.13751314069784   -3.00371913433660   -2.11797590318722
H        -8.09216165116040   -4.49522686745020   -1.12804815696445
H        -8.78974326125096   -2.97996185117938   -0.46661208627466
H        -5.45409061287822    0.37751056838914    0.81966845465682
H        -3.14460287028897    0.70211096932279    1.69313785958270
H        -1.90899714914636   -4.34713421911645    0.28239625945472
H         1.72728293110855   -2.33859920024713    0.14962522769037
H         3.58258567451566   -6.06660254264436    1.08630930880357
H         1.99720482749927   -8.92486345889358    2.74950684062016
H         2.72401561758346   -8.28756774955641    1.25415406341297
H         3.22879459173346   -7.64159422529354    2.84394626464426
H        -0.53269658817223   -5.41886339279193    2.11767403507725
H        -4.37791635971662   -3.63481958418557   -0.20738232383156
Cl       -0.23014018941426   -0.41245751418758   -0.50024835120679
