72
 energy: -114.240989752152 gnorm: 0.000408774223 xtb: 6.4.1 (afa7bdf)
Ir       -0.69944029688596   -1.27653199916995    1.21369162684226
C        -1.83248665917446    1.19166862184606    3.54891550249810
C        -0.81809124469247    0.26287088849768    2.98581114214664
C        -0.70106426553353   -1.10899268057454    3.45069949531318
C        -1.60324579248357   -1.73249132981749    4.45809240728848
C         0.56533287769603   -1.61568602599212    3.03628490128686
C         1.21926474109878   -2.84615035752872    3.55672525925591
C         1.15684677340108   -0.63367422986943    2.16486959177429
C         2.55462133900300   -0.66776404661921    1.65009917301030
C         0.31132845028476    0.55777720080517    2.18340849775910
C         0.78592174650216    1.88706430175666    1.66755436906056
C        -0.18366487238544    2.62440778635564    0.73954997804260
C         0.46986032711412    3.90507702086447    0.22780960678358
C         0.86318191137615    4.80897668545561    1.39361908789441
C         1.80541048103924    4.07559350821565    2.34433840592688
C         1.16012881875205    2.79091966256571    2.85623964455061
H        -2.81239086732046    0.72592939600965    3.60692483118971
H        -1.91469772077024    2.11043575709487    2.98136488235365
H        -1.52531562909466    1.43519576811729    4.56765003705415
H        -1.49988726112906   -2.81353651938359    4.46598043750232
H        -1.34057084247682   -1.35884430431537    5.44855374232810
H        -2.64259710299869   -1.47626697656644    4.27080460352961
H         0.49786368326029   -3.63581419279845    3.74759561041205
H         1.98034287877397   -3.21873881957535    2.87813978272358
H         1.70056282299803   -2.59619779297110    4.50332113966228
H         2.94628077324486   -1.67986269722024    1.64762081564267
H         2.61036158130681   -0.26452742150196    0.64209832234132
H         3.18378270995991   -0.05447254279732    2.29585556177006
H         1.69667656245903    1.70772921513741    1.08889800008077
H        -1.10349376695620    2.88559252183069    1.26132232822788
H        -0.44028267174809    1.97778905403183   -0.09956732955312
H        -0.22369967546656    4.43052777080838   -0.43105776367234
H         1.35893695736103    3.65748220997090   -0.35682133689732
H        -0.03515793948699    5.11537268852555    1.93443475789857
H         1.34707251882005    5.71200522337574    1.01624860005547
H         2.05531228530369    4.71924222844751    3.19013229820157
H         2.73432984400449    3.83874109376322    1.82072659479486
H         0.26556776324260    3.04154909122067    3.42507614439713
H         1.85034669820545    2.26672227518818    3.51957268475476
C         5.24972485178741   -5.95923994933893   -0.05905804086205
C         3.97643688987896   -6.41129538332348    0.56778408410351
C         3.85975561390080   -7.62688003686088    1.15271977815417
C         2.63787711219698   -8.09536253182447    1.76977174940615
O         2.48464862717319   -9.17367310433178    2.29890064317082
O         1.56782159743572   -7.23962688418369    1.75332006420908
C         1.64153183407030   -6.02361437546461    1.17018132746569
C         0.48350046279085   -5.24995767629920    1.19113515776991
C         0.49035804953796   -3.98708928861219    0.61359887495563
N        -0.66855691486034   -3.19893698436037    0.59472957169195
C        -1.77627184782712   -3.73951378686863    0.19341697482033
C        -2.92610369607246   -2.90243726821091    0.08026428179667
N        -2.75937993185716   -1.61710545379187    0.47607428069651
C        -3.74682526436486   -0.76105885134463    0.23298804434554
Br       -3.46299073883814    1.04166202529232    0.64099378026595
C        -4.96846450695482   -1.12565322416278   -0.32119272176128
C        -5.17795943383220   -2.44754934811139   -0.68225356939070
C        -4.13191918401448   -3.33018177495540   -0.49182300514065
F        -4.24651121619031   -4.60804939671887   -0.86230439512658
C         1.65522573776767   -3.49699196115091    0.01026566848126
C         2.79092747189674   -4.27081707694710   -0.01936590989927
C         2.81610167802651   -5.54701972018625    0.56149225377004
H         6.01520752305212   -6.72232421186002    0.04379092076354
H         5.09684379037911   -5.75807169474866   -1.11811655405572
H         5.60100061082060   -5.04391499739356    0.41344709888528
H         4.68358903413790   -8.32187043632265    1.18847513889366
H        -0.39335182379565   -5.64642205595393    1.67754742930703
H        -1.82530817248201   -4.77257967508045   -0.13219412911196
H        -5.73555748273964   -0.38127287909209   -0.46455044209520
H        -6.10857639173971   -2.78090588870133   -1.11356645860827
H         1.62795566484762   -2.52804791632851   -0.46211784954565
H         3.67632007821251   -3.89164732093792   -0.50209989904003
Cl       -0.33598795927285   -0.62298290524640   -1.03986158261469
