73
 energy: -102.219223960924 gnorm: 0.000649353237 xtb: 6.4.1 (afa7bdf)
Ir       -0.78383892434672   -0.78730226347610    1.37288408718995
C        -2.19450419556106    1.54965876455007    3.60658558421530
C        -1.08493683658901    0.65206007411663    3.17013801408770
C        -1.02440545322089   -0.73572355916506    3.58833404039121
C        -2.03364497089731   -1.40236711422460    4.45988020539451
C         0.28948253583406   -1.22724504943788    3.31712985345004
C         0.84728667494298   -2.49598426754561    3.86563923012615
C         0.97716326736421   -0.22173785236552    2.56726651270229
C         2.41767535431856   -0.25167985472899    2.17326270129732
C         0.13827515844130    0.97477317090860    2.53834352290613
C         0.68178060722397    2.32283116273431    2.15189562945446
C        -0.16824722745284    3.13465978366575    1.16961797617412
C         0.55096104137505    4.43457909625366    0.81855009888817
C         0.81576152517018    5.25778631660983    2.07679668698846
C         1.64086370514393    4.45220763380878    3.07643146307100
C         0.93624165441150    3.14501028181405    3.42799095475412
H        -3.16579045850003    1.11483353807206    3.38163223130142
H        -2.13813465408715    2.52919160266483    3.14782957599945
H        -2.12813162931347    1.67095489265355    4.68852573755068
H        -1.96058715910496   -2.48383302865559    4.38909007365678
H        -1.85346369843234   -1.11755583210183    5.49738972704747
H        -3.04311033462186   -1.09714887351320    4.19875473248494
H         0.16083284753596   -3.32834940951740    3.73314986353254
H         1.80446150189112   -2.74648371983968    3.41965029560155
H         1.00280630599941   -2.36147525374135    4.93663627267142
H         2.81004000932347   -1.26403673728078    2.19168260871916
H         2.55317125895850    0.15055471884349    1.17182562291368
H         3.00149253257221    0.35238697196299    2.86811777852271
H         1.64779858357238    2.15899727912186    1.66542115773318
H        -1.13602289551303    3.38468841257630    1.60512927478194
H        -0.33114812175716    2.54953251527642    0.26341102841337
H        -0.05519460901569    5.01145636168138    0.11712357311416
H         1.49916137859791    4.20772425292358    0.32598850740276
H        -0.13558586621314    5.54190510809515    2.53340627731655
H         1.34406377322225    6.17683674176353    1.81551794559536
H         1.79996768517454    5.03713918367539    3.98464196853919
H         2.62095209034180    4.23711509456514    2.64420649789247
H        -0.01122019245117    3.36668852402079    3.91993323554857
H         1.54932619336745    2.56841327940738    4.12356798347963
C         2.52413641771113   -3.41340763776282   -3.48523287522408
C         2.96381979843085   -4.08478542974453   -2.43734625288038
C         2.36783146156060   -4.10465845838355   -1.06098854340602
C         1.07541464104735   -3.30767878176760   -0.91841128304406
C         0.53023152829513   -3.41307786247934    0.51477921336515
N        -0.68670778471696   -2.64552192497877    0.64206167077261
C        -1.78683482621194   -3.16652583323244    0.21278222471222
C        -2.94555861774423   -2.32640526763695    0.16168808078614
C        -4.19629428862233   -2.76493258269833   -0.31724654468685
C        -5.22605647554545   -1.87235196845512   -0.40446450294209
C        -4.99257213347735   -0.51544988929359   -0.08559966847937
C        -5.98448631658367    0.47122063216889   -0.23471656589442
C        -5.69114822672942    1.78654718310647    0.02072548720582
Cl       -6.90328470557207    3.00634037358017   -0.17974323911618
C        -4.39890220599810    2.16983132997850    0.42286711611117
C        -3.42924541645081    1.22357129961892    0.60349626836428
C        -3.69615842426177   -0.14025697819950    0.37466499114254
N        -2.72426568802942   -1.06436857639289    0.55622589956443
H         3.03074671781152   -3.46700326386834   -4.43432852737896
H         1.65428894468316   -2.78088375678527   -3.45329290327039
H         3.85049215783862   -4.70019827406719   -2.53355778820495
H         2.18924010938685   -5.14934297957258   -0.78778860363915
H         3.11968238889725   -3.71945810439604   -0.36602112069232
H         0.32949921358780   -3.68923424691268   -1.61697466989683
H         1.25349563059459   -2.25814980684125   -1.15129558055662
H         0.33424433666645   -4.46300181129284    0.75331138254525
H         1.27561878791338   -3.01924765705191    1.20299301326028
H        -1.82975143018499   -4.18610289511928   -0.15425272815582
H        -4.31754516885838   -3.79807432810273   -0.59896372848731
H        -6.20559964050130   -2.17687776536427   -0.73811442277206
H        -6.96709040889521    0.18228067415236   -0.57160134148930
H        -4.18455691869497    3.21460459911176    0.57762622380467
H        -2.42439418268829    1.50667333708469    0.87173237608383
Cl       -0.16040373235494    0.02929870542087   -0.77111858840760
