68
 energy: -107.941323769548 gnorm: 0.000473073402 xtb: 6.4.1 (afa7bdf)
Ir       -0.43251004687697   -0.61508351588924    1.82816587513730
C        -2.00804476298952    1.72383294785544    4.01053543433416
C        -0.84501183019079    0.92432739541828    3.54226695897256
C        -0.59032101212076   -0.41592866289924    4.04748141754413
C        -1.47239071176194   -1.12792121540604    5.01412660805406
C         0.75454331571463   -0.76533931043040    3.72862760996318
C         1.51731306261405   -1.90062490238439    4.31387655707636
C         1.27499521796071    0.26738418144454    2.87297235328214
C         2.69535044062647    0.39407142923794    2.44132442810853
C         0.29167485554089    1.34626680252229    2.81280917534730
C         0.63267154720796    2.71592061360669    2.29782661536241
C        -0.35536894183305    3.31184204776491    1.29092284993564
C         0.16767163697996    4.65615742287700    0.79304130298725
C         0.36681453422945    5.62006153291886    1.96007737161159
C         1.32634658996799    5.02496708933204    2.98702287655902
C         0.81228805063317    3.67767694716678    3.48623548549598
H        -2.92658820224679    1.14358600175084    3.98915957630045
H        -2.15100158516896    2.62523559358757    3.42747904743830
H        -1.82097635489924    2.00330480632374    5.04872856590118
H        -1.24596395853778   -2.18936156029618    5.04783819819722
H        -1.31191799755587   -0.71438907259533    6.01035001524141
H        -2.52122163732418   -0.99577802585599    4.76332515816651
H         0.87738451892572   -2.76033493810865    4.49161694624728
H         2.34828319986586   -2.19900545724093    3.68161725622118
H         1.92036041908328   -1.57659094148922    5.27434157526490
H         3.20315556361371   -0.56470840821942    2.47578641606705
H         2.76404763939333    0.79068075778928    1.43148799381884
H         3.21022285263265    1.08283744802172    3.11172538347436
H         1.59579836444969    2.64248092000504    1.78469666385255
H        -1.33411545543826    3.46384157423713    1.74442347137653
H        -0.47188248256785    2.62523214175300    0.45234486506065
H        -0.53915717704422    5.08059626345210    0.07778518858037
H         1.11810900954316    4.51248047438628    0.27371634028851
H        -0.59677052538055    5.82007937515626    2.43407974195348
H         0.75971802342485    6.57015365997168    1.59310578303161
H         1.43758672577685    5.70774188742955    3.83178437230193
H         2.31056729108404    4.89745775454619    2.53059706496702
H        -0.14195921447495    3.82262684240467    3.99141974527297
H         1.51740370981614    3.25411957617600    4.20373489723607
C         1.72700713871470   -6.90916710975393    3.20482901928798
O         2.78291078403112   -6.19710595354908    2.58298758515876
C         2.52068346812422   -5.01394686370678    2.00481381181699
C         1.27829281617149   -4.39013305627472    1.95689397558622
C         1.13388698421182   -3.14223581868244    1.34380057150861
N        -0.12370476511870   -2.52634798623258    1.27022525169390
C        -1.14224552747532   -3.22624825066912    0.87738029379104
C        -2.38474871141098   -2.54903507586595    0.69153601486891
N        -2.38947852440961   -1.23331425295824    1.01566857870667
C        -3.45923140694480   -0.51562958606804    0.68847724659479
Br       -3.40065541009963    1.33142106719188    0.98850245071309
C        -4.60808609855406   -1.05688880383565    0.12283815227530
C        -4.64716920844765   -2.41416583532581   -0.15743799101743
C        -3.51120235821446   -3.15189576259884    0.11571903941646
F        -3.46082537122810   -4.45512788476700   -0.17411026156092
C         2.22534443470677   -2.50171388454667    0.76513071588272
C         3.46298459082099   -3.12172448330169    0.78434874026294
C         3.60197825233797   -4.34930418563662    1.39651241147454
F         4.81326358771829   -4.93727822977230    1.42078950693686
H         2.18250672249161   -7.82007325343672    3.58649116686332
H         0.94699471412634   -7.16717279165815    2.48438113150903
H         1.30351888298748   -6.33858576690444    4.03478492010432
H         0.42018087405422   -4.85262524291958    2.41669722831710
H        -1.05009348731754   -4.27051784064370    0.60241493603206
H        -5.45172300724317   -0.42070825722293   -0.09182159098552
H        -5.51727062090494   -2.88145531818149   -0.59100974326433
H         2.08540609513303   -1.55632943591027    0.26760980441531
H         4.32447161468344   -2.66366073544982    0.32639857030083
Cl       -0.04885513563544    0.04847612238934   -0.42171572271424
