78
 energy: -134.064411395693 gnorm: 0.000795072265 xtb: 6.4.1 (afa7bdf)
Ir       -0.55096081349572   -0.58390018779191    1.48446057891032
C        -1.57435520286362    1.14527679349170    4.23101229013844
C        -0.46231122982111    0.50640674372241    3.47411170720083
C        -0.04386812237648   -0.85886673853045    3.63360410931810
C         1.16841252569438   -1.04044126209148    2.87522237615819
C         2.10280849235285   -2.19489747533746    2.97812382193726
C         1.45719079302799    0.17968880637556    2.20081727138338
C         0.43774409943916    1.14412140361265    2.55904496697514
C         0.53524607397078    2.58758087964301    2.29287991739361
C         0.54499294769583    3.48594220838780    3.35916883155649
C         0.68760598982221    4.83977205477189    3.13112351111321
C         0.82007712735322    5.33932251006091    1.83610208140233
C         0.97662827831475    6.78181203904091    1.59836399730050
C         1.86415396923839    7.24841038772694    0.63031306072390
C         2.01933463822778    8.60497745742932    0.41242011339378
C         1.28648876482874    9.51838075020391    1.15288702288644
C         0.39842232223128    9.06595548436706    2.11529592159104
C         0.24645110625598    7.70988478706323    2.33888955250979
C         0.80698708457782    4.43667598281885    0.77322216091363
C         0.67045335692153    3.08129295006782    0.99542617067997
C         2.71186811612590    0.46570910357735    1.45652755502155
C        -0.59011324609610   -1.81486119370504    4.63890879440825
H        -1.26783406394862    1.26832504508548    5.27050632826998
H        -2.46532942925840    0.52181320162423    4.22436946056863
H        -1.82127517514429    2.12034307749467    3.82211715102655
H         2.78342889624770   -2.01248312978859    3.81083483458186
H         2.69893615667956   -2.29683511719139    2.07554164584166
H         1.58078961254192   -3.12807842398793    3.16888650484816
H         0.47425486070613    3.11893951385468    4.37082630482086
H         0.72207370534833    5.51893487804549    3.96942834343900
H         2.45291777244709    6.54491523672774    0.05988058820326
H         2.71593538955971    8.95244849670971   -0.33694478912570
H         1.40793863395561   10.57779749845993    0.98096911813507
H        -0.17757669052234    9.77442732691664    2.69311071116675
H        -0.45887131509490    7.36727173361812    3.08183303197850
H         0.88814274537066    4.80268371150767   -0.23903233956740
H         0.64058421986668    2.39983510554436    0.15809173389538
H         2.83348222581939   -0.20599922532472    0.60876003540434
H         2.72137385613965    1.48913318678561    1.09311127767684
H         3.56271414540337    0.31631903428370    2.12122779014479
H        -1.65828760216877   -1.67415172698078    4.77661898746087
H        -0.39107720123274   -2.84486017150283    4.35648416055577
H        -0.10237182402994   -1.63311150035617    5.59738146335155
O        -1.34774284872107   -4.88920578979473    2.41535025511574
C        -0.30100116712774   -4.67927876987109    1.60968182794144
C         0.67154001099493   -5.67902882117043    1.53903391808303
C         1.79721496907637   -5.53075769186369    0.75754327734156
C         1.97998586648082   -4.35372748901871    0.03722346817556
C         3.19920735572491   -4.12914852575367   -0.80750837665843
F         3.84789582703442   -2.99845931542730   -0.45305148968207
F         2.90641580759712   -3.98546922024836   -2.11521641555976
F         4.09880751041515   -5.11810185767592   -0.72668246293859
C         1.03715311018983   -3.34070568125482    0.09629074936782
C        -0.10937574436959   -3.49758160225916    0.86581697598985
N        -1.04548380466409   -2.44889659068702    0.89570575080395
C        -2.27284947676943   -2.66083389392721    0.52795278216094
C        -3.15601321041121   -1.53855485714260    0.53753804796452
C        -4.50408958145270   -1.63600706818985    0.13608580047055
C        -5.27849173976840   -0.51234404401565    0.12675285322149
C        -4.69377965199227    0.73055095606599    0.45944097585902
C        -5.42547636571440    1.93055310068334    0.40866874655599
C        -4.81137679651349    3.12692198103125    0.68200481091501
Cl       -5.70186222662785    4.60599398990403    0.60858208201632
C        -3.44309663505544    3.16826052924961    1.00582081784012
C        -2.72120411681907    2.01087597823308    1.08949540544824
C        -3.31657928225661    0.75962662447200    0.83661023879473
N        -2.59170002083509   -0.38173935477416    0.92636277570682
H        -1.96981565858070   -4.14615075454943    2.44241448990425
H         0.51229698714489   -6.57650741725172    2.11409725385943
H         2.53423098234134   -6.31592674468458    0.70990655767744
H         1.16539518320362   -2.42733493521004   -0.46564181836901
H        -2.60137799346724   -3.62587726669250    0.15725064959255
H        -4.89647527018791   -2.59778636130370   -0.15154512596863
H        -6.32024023845830   -0.55088340448917   -0.15003906610970
H        -6.46822526701377    1.89806208011138    0.13648174997738
H        -2.96814450959023    4.11959361890540    1.18205111569140
H        -1.66675379259226    2.05139236973607    1.30340242178094
Cl       -0.10430120125266   -0.07486000751622   -0.79981619856244
