87
 energy: -125.539077161128 gnorm: 0.000480461330 xtb: 6.4.1 (afa7bdf)
Ir       -0.89452157171148   -0.85484712772820    1.26720139102040
C        -1.82146436465129    1.60875277897510    3.59018742633674
C        -0.83472373735874    0.63527470341699    3.03594570597138
C        -0.79272744637645   -0.74470212499864    3.48072141985970
C        -1.70575842839274   -1.32316040561755    4.50957278497335
C         0.44167586011597   -1.31721862470852    3.03712314780196
C         1.01827167495226   -2.60768904974700    3.50620435460360
C         1.07111897944025   -0.36734944796139    2.17912304012175
C         2.44556232072169   -0.49075472100177    1.60863280607326
C         0.30056848584073    0.87050683781036    2.22293184684537
C         0.86247694460322    2.17408170272213    1.72317679802418
C        -0.05710616670738    3.00737477203804    0.82537346327231
C         0.68852657917044    4.24505244950156    0.33198829578646
C         1.16884413170039    5.08860189167721    1.51025090774735
C         2.06422822840216    4.26161036366609    2.42864690044078
C         1.32832591386553    3.01894800828826    2.92153611921345
H        -2.83868940916694    1.23205074397268    3.50524780102856
H        -1.76695897191001    2.57296720440478    3.09916999452067
H        -1.60712905906239    1.74705031647373    4.65078586991824
H        -1.69547913053820   -2.40904609816004    4.47921482257659
H        -1.37636773440416   -1.00849564682858    5.50057814805200
H        -2.72578473999558   -0.97612184091394    4.36765618676948
H         0.24201966814203   -3.33158045091391    3.73794307940247
H         1.69197194902138   -3.03906222743873    2.77132908696123
H         1.58681796476778   -2.41840294125922    4.41744164781647
H         2.76471787059935   -1.52846460085770    1.58303032832034
H         2.48418405148938   -0.09120635427474    0.59775222769300
H         3.14797538722840    0.07109838810403    2.22495668622417
H         1.74648758975677    1.93672531084069    1.12415742830440
H        -0.94255224748175    3.33433680924023    1.37133882093149
H        -0.37166662241528    2.40409669746330   -0.02783262470339
H         0.03169232979716    4.83854923301652   -0.30692279478302
H         1.54685007765686    3.93969011096060   -0.27058574632634
H         0.30650876735400    5.45236237353354    2.07406132945210
H         1.71637443519164    5.95957858587251    1.14448239469007
H         2.37879296775512    4.86410606865331    3.28313571817342
H         2.96259260603363    3.96326082107530    1.88361791965546
H         0.46750956558555    3.32194916131635    3.51784406086382
H         1.98663845591138    2.42524193104136    3.55863435429147
C        -8.43096234433191    4.52905692175779    0.09471382822437
C        -7.83955724084981    3.12849222575793    0.11554472317800
O        -6.44101822017931    3.25250058473445    0.34654651610305
C        -5.67562723323578    2.15560326225578    0.41056580401587
C        -4.29446518177233    2.39697358003876    0.63438493155108
C        -3.40972044913243    1.36957335548556    0.74864015641470
C        -3.83442055323478    0.02980167772079    0.62933603549951
N        -2.94589366357723   -0.97934701850840    0.74412145802202
C        -3.34462457299243   -2.23272399096358    0.47370323331942
C        -2.29299071886631   -3.19615638314935    0.44951608952596
N        -1.08863668562436   -2.77076580158609    0.67897002329394
C        -0.01028970261087   -3.65423020410026    0.61004425866260
C        -0.10585002053571   -4.95383702826237    1.16112084230313
C         0.94941231172969   -5.81348865007293    1.07798545144095
C         2.14797033878864   -5.44176808305713    0.42699456251974
C         3.23591056149437   -6.32660080134159    0.31865465370361
C         4.38839677521365   -5.94043719166539   -0.32941356804755
O         5.48799622169861   -6.70771767062469   -0.50105510303036
C         5.48800664062202   -8.02653784631399    0.00798309286437
C         4.47829438810082   -4.63729060797253   -0.88267930163077
C         3.43907954156321   -3.76486439427915   -0.78502487612469
C         2.24152103205737   -4.13598918769602   -0.12814206823262
C         1.15572448705705   -3.25636753575776   -0.01231913300686
C        -4.68650172266409   -2.55247935737121    0.18040967380395
C        -5.61913317119077   -1.55736756567935    0.15066126610011
C        -5.21173839445894   -0.21884982317856    0.35127965925292
C        -6.11281308783626    0.85388854787968    0.26662523179584
H        -7.96900585593950    5.11772495720813   -0.69308419480162
H        -9.50032853098764    4.47180656041990   -0.08475963167017
H        -8.25590959188236    5.02355365096824    1.04609558241849
H        -8.01261535213861    2.62712444765174   -0.84492675539201
H        -8.29416705267989    2.53326547310536    0.91745261917904
H        -3.97493996639861    3.42406458607274    0.70352606348377
H        -2.35670392832181    1.55424228302564    0.87996734901018
H        -2.48870438694070   -4.22418188669918    0.16926542266743
H        -1.00898728214223   -5.24404584564272    1.67529890195629
H         0.87897792243932   -6.79896317868251    1.51294857458156
H         3.13612458354395   -7.31080825708506    0.74788845153809
H         6.46054181557737   -8.44007868694294   -0.25143733507846
H         5.36815128420705   -8.03117958274366    1.09491146588472
H         4.70082931782386   -8.62864188860365   -0.45420659181298
H         5.39551968753313   -4.37074089822462   -1.38324585667611
H         3.51271294677901   -2.77628784374644   -1.21147273464937
H         1.21103389097526   -2.27380085220977   -0.45511452455249
H        -4.94804164558996   -3.57987358049369   -0.01203856476543
H        -6.65779004123736   -1.77099396591796   -0.04879865289375
H        -7.14755350710363    0.62801571441365    0.06615601857969
Cl       -0.51432581795447   -0.22808782159040   -1.00261819642927
