75
 energy: -108.636660347657 gnorm: 0.000603618088 xtb: 6.4.1 (afa7bdf)
Ir       -0.22635476995770   -0.81255750680435    1.83074356963952
C        -2.23884914660354    1.18402245174940    3.79202469470734
C        -0.92136004409125    0.53911175766244    3.53249248986807
C        -0.59264875497351   -0.77267611421835    4.03670968668549
C        -1.48671969943293   -1.60672647070298    4.88866740880998
C         0.81572358860031   -0.98656183461756    3.83918780915436
C         1.62416061211611   -2.06516483951376    4.47424945768631
C         1.32428231622099    0.12900370302061    3.11102989884512
C         2.75990752091586    0.39493770495788    2.81039852214223
C         0.23985266675572    1.08588831081936    2.91973849406641
C         0.48103899683068    2.48921794775717    2.43255461554091
C        -0.44572953279668    2.96032626522712    1.30648468276149
C        -0.02599209208313    4.35353347808252    0.84443290044007
C        -0.07305054192906    5.34122557383168    2.00782958006319
C         0.82465197564754    4.86825677789468    3.14822219696649
C         0.41610966154956    3.47307369327383    3.61248524881240
H        -3.06173205770993    0.50468834674007    3.57793683705074
H        -2.37400078989153    2.09609703287015    3.22164248150510
H        -2.29190255623519    1.43540445816394    4.85237430079992
H        -1.21019008444425   -2.65608331075879    4.84508957915239
H        -1.40062017107199   -1.27650076950758    5.92445184320578
H        -2.52555245264841   -1.50499465683703    4.58870627490532
H         2.00702025902881   -1.68864621679370    5.42388376775690
H         1.02143446202419   -2.94348445398474    4.68539561346770
H         2.47510659096609   -2.34580311126983    3.86039098345189
H         3.36684241570146   -0.48806291105697    2.98534890034979
H         2.88887529055903    0.70957362857088    1.77651547434859
H         3.12145222544030    1.19505648124927    3.45613844862502
H         1.49775322530346    2.52132600848591    2.02962941092201
H        -1.48143743046379    3.01092205090999    1.64409258598643
H        -0.38394027477183    2.26030032071668    0.47163969631806
H        -0.68909466203066    4.68994801815570    0.04484981468829
H         0.98771383731894    4.31573359298784    0.43950467623868
H        -1.10126423429029    5.43278554628265    2.36634277549623
H         0.24736753620852    6.32835896242736    1.66905356322532
H         0.75986208269570    5.56586874937741    3.98558116542616
H         1.86242576454419    4.85328902916871    2.80720749911773
H        -0.59786928158344    3.50969869299013    4.01108472418485
H         1.08080842058049    3.13820908752722    4.41080971315949
C         7.18531430477860   -4.11450258764975    0.63161461941769
C         5.83099967292817   -4.60625315423562    1.12979420172137
C         4.70283962031505   -3.64641964982791    0.75490683025226
C         3.34504503346792   -4.14294883389362    1.24973377914945
C         2.22390417790072   -3.18101213988866    0.86435541684015
C         0.87033312655311   -3.66125441421087    1.41006279660168
N        -0.16642732953729   -2.71024912048337    1.10726489846646
C        -1.03689435657175   -2.99987293466531    0.19814834842411
C        -2.02786263958787   -2.01094505325187   -0.10770938234312
C        -2.99883000866979   -2.13741692294934   -1.10485296072770
C        -3.88357355929017   -1.10136020860972   -1.31806786963251
C        -3.76200829243238    0.04268959149491   -0.52264674648940
C        -4.70320213129037    1.19852526513841   -0.73395132569325
F        -4.57179189825134    1.73555741795496   -1.95821176231943
F        -4.51289341362045    2.19045720933748    0.14533128212086
F        -5.98928126533506    0.82615907598543   -0.62087233880649
C        -2.77527049392080    0.10696228953825    0.44646144047879
N        -1.93163432644345   -0.89605606157294    0.66023796236503
H         7.97037918947002   -4.81577787368015    0.90568074741966
H         7.42623500752732   -3.14569601457993    1.06416033938573
H         7.18158788397236   -4.01320307975274   -0.45188527719848
H         5.86710387118789   -4.71944764948766    2.21573643402835
H         5.62682902658228   -5.59028967601588    0.70185764267858
H         4.91243560284449   -2.66366139592226    1.18260146824270
H         4.67553445628232   -3.53172077880368   -0.33061490727138
H         3.14788150691927   -5.12682269889432    0.82022698658374
H         3.38116886372014   -4.25940680565508    2.33485538052440
H         2.43590464817960   -2.18286236755957    1.24951197984480
H         2.16148500202750   -3.10201716001382   -0.22134624821600
H         0.62972878755295   -4.63519336535435    0.97405864200236
H         0.94080556143433   -3.76494478100904    2.49389973808995
H        -1.02594134171586   -3.94844013261242   -0.32733712699297
H        -3.04130079410219   -3.03420327696634   -1.70149380852353
H        -4.64845504494529   -1.16016540551503   -2.07676997099165
H        -2.66255491968320    0.98708469998318    1.06133910152813
Cl        0.79097159975023   -0.14650048119906   -0.22165469652446
