66
 energy: -119.599621150247 gnorm: 0.000693936719 xtb: 6.4.1 (afa7bdf)
Ir       -0.60541428210047   -1.10321638885924    1.32935357365931
C        -1.99955546980221    0.67389034090442    3.95990305754527
C        -0.80619945282444    0.09003621393241    3.29856204752375
C        -0.31414326428263   -1.23455651090885    3.55670421887248
C        -0.89289805343544   -2.18141392447062    4.54951548392254
C         0.96305811481615   -1.36621114428681    2.91470736360230
C         1.96706391789327   -2.42958553242449    3.18105626263712
C         1.21465559216987   -0.16305950957626    2.17321563746371
C         2.50902023026662    0.17728179151384    1.52693749964947
C         0.10861600179430    0.74493160469132    2.41484199006189
C         0.12739331396395    2.17896878786093    2.08293786202060
C         0.01429340391728    3.11579095757898    3.10844693508435
C         0.08188229726885    4.46093439873593    2.79818807774083
F        -0.02464907258582    5.35924908531714    3.79760587150146
C         0.25702460699300    4.92118078840697    1.50559469241946
C         0.36764497976280    3.96500662723601    0.51118556655652
F         0.54035163967818    4.37508829938094   -0.76132722376501
C         0.31057176631811    2.60930390181393    0.77102279149201
H        -2.23314089743950    1.65710417193172    3.56535526152927
H        -1.79504059626901    0.75845294212179    5.02815367316354
H        -2.86852313254565    0.02827575490602    3.85114961859559
H        -0.59093592453048   -3.20368688056135    4.34075351175526
H        -0.52984581830233   -1.91874725696800    5.54396366080331
H        -1.97745927208247   -2.12365484888970    4.56370961112671
H         2.52709456096411   -2.14409326211928    4.07295889977630
H         1.49947455388351   -3.39108954177844    3.37186528446480
H         2.66810709290465   -2.52683047559248    2.35829633617996
H         2.82004743687550   -0.60252553519031    0.83609864959014
H         2.44270338603829    1.11710256333698    0.98828032535254
H         3.27395956044252    0.26573946002344    2.29884208401121
H        -0.09855938071163    2.81521601681547    4.13674919552830
H         0.30490632746572    5.97403168983664    1.28351363482456
H         0.37607799661108    1.90374514432039   -0.04231962853972
C         4.80043180545508   -6.43484887166293    0.25840607365755
C         3.49213486686443   -6.70600482115097    0.91537031688648
C         3.25390933015754   -7.86052085849009    1.58152522569339
C         1.99251589244859   -8.16022047584420    2.22417411215555
O         1.73053163902088   -9.17825050931170    2.82430855526314
O         1.01458870090247   -7.20300114001198    2.14339458796106
C         1.21171454615559   -6.04190527110332    1.48306184261260
C         0.13888918448640   -5.15385942156925    1.44926090364357
C         0.27963111697932   -3.93318709283458    0.80333925704720
N        -0.78772548454836   -3.02622805590362    0.74268733276902
C        -1.94690004285530   -3.44394587150603    0.34201624036787
C        -2.98518258490978   -2.47249137878267    0.20485919498065
N        -2.65728971222739   -1.21336542434033    0.58802861985251
C        -3.52443314901357   -0.23604781488800    0.33822910712254
Br       -3.01783645521317    1.52803767112170    0.74781266165926
C        -4.77840270046680   -0.45004288096783   -0.22390088264522
C        -5.15286141446112   -1.73681499399710   -0.57699686673928
C        -4.23260079438085   -2.74800510371274   -0.36994186536106
F        -4.50996082198353   -4.00230928313770   -0.72644700149367
C         1.49027544608907   -3.59987701737044    0.18241870331534
C         2.53621962116840   -4.49181203446484    0.19675298440442
C         2.42811000453994   -5.72738602149056    0.85109881023358
H         5.47708171408398   -7.27210059535269    0.40026116026351
H         4.65982424717930   -6.27617297472553   -0.80905066938219
H         5.25722646111531   -5.54071545050190    0.67728614192794
H         4.00256460011012   -8.63199474854362    1.66593582169468
H        -0.77632583997554   -5.42766368988045    1.94978955895723
H        -2.11697472809907   -4.47172418024845    0.04155088925182
H        -5.44433952737400    0.38349959056121   -0.37969894649203
H        -6.11593190084794   -1.94917604228472   -1.01397070562274
H         1.56643315653205   -2.65794821594735   -0.33859629327147
H         3.45558018096121   -4.23780705686367   -0.30341482285886
Cl       -0.15536852101508   -0.52755369383885   -0.92948387399763
