80
 energy: -125.487929301285 gnorm: 0.000755436709 xtb: 6.4.1 (afa7bdf)
Ir       -0.58852552302595   -0.73466718638605    1.25381590809141
C        -2.17780494835650    1.18784168700222    3.62395750913263
C        -0.95098930457855    0.50654323929423    3.13348870886968
C        -0.60379538156893   -0.83815163379364    3.49611931505819
C        -1.39867515768434   -1.71337689409369    4.40626332041532
C         0.76097349337466   -1.06342777003334    3.10405929409345
C         1.64112682875391   -2.13956539631009    3.63741076834778
C         1.20160185584766    0.07148678849129    2.36649965426314
C         2.60207315056665    0.31100006316249    1.91267801254010
C         0.13420960918852    1.06314581197553    2.38756906165049
C         0.35306734096993    2.46014173636913    1.99840560631500
C        -0.01134495635707    3.50494308362818    2.84662034317105
C         0.30463732997312    4.80184215151890    2.48963356480476
F        -0.07113690958438    5.80458409295623    3.31497391839415
C         0.99325692333315    5.11853627059164    1.33397639891193
C         1.33416253826632    4.06209054956525    0.50878756533156
F         1.99617465608439    4.32196096597437   -0.63670980032082
C         1.02415606325751    2.75147318051888    0.81073690978478
H        -2.33304877966977    2.13857015061589    3.12650889961884
H        -2.06820001589039    1.36085913042574    4.69588364072908
H        -3.05674329593657    0.56231570394236    3.48469535332856
H        -1.20331713547884   -2.76386091039254    4.20922980207968
H        -1.12354667263355   -1.50304244869383    5.44039955733393
H        -2.46292166282288   -1.52858921525257    4.29545686816706
H         2.20686995188495   -1.72151545754416    4.47262584230778
H         1.06165459217803   -2.97501664746101    4.01702635327133
H         2.35569292659295   -2.49118651385276    2.89939666691561
H         2.70762904125213    0.14909449130814    0.84104156571724
H         2.88532128786445    1.34106043900451    2.11743098086826
H         3.28799998481079   -0.35666374501832    2.42640452663100
H        -0.50058240258430    3.32766058101409    3.78915683540456
H         1.23486514844820    6.13487639925632    1.07381276358498
H         1.27419861277434    1.97228772888015    0.10961651467275
C        -2.70407039480235    8.08169732893869    1.14060048181865
O        -2.94655386164783    6.67782578465237    1.11448963841247
C        -2.14641269992843    5.93549438430661    0.34827040349902
O        -1.25007662449315    6.39400438751939   -0.32597148252097
C        -2.47548326017341    4.48883309150370    0.41699204585364
C        -1.74807594209604    3.59677835188083   -0.36569332058945
C        -2.01304599967402    2.24113992082612   -0.31816327484041
C        -3.04013341795795    1.76136729000881    0.49023994175492
C        -3.45861575594378    0.35259908064267    0.39824945316313
C        -4.81117258991501    0.12753673265340    0.11599315147935
C        -5.27770777242599   -1.14835045083577   -0.14016610106540
C        -4.36019699759595   -2.18409330927914   -0.15225898607971
C        -3.03519157841350   -1.90673374861989    0.16893789869621
C        -2.01628714921064   -2.91540521858915    0.10751207230304
N        -0.82174951193118   -2.64798874554184    0.49920516611233
C         0.16531453958577   -3.69583938335287    0.29379471345761
C         0.13971055027081   -4.69519334810937    1.45999748918290
C         0.93190343495272   -5.94989893250690    1.07103604546060
C         2.11541864990776   -5.61310645376801    0.15324223759676
C         2.63689418045306   -4.21164492780658    0.45342438499899
C         1.58439489268904   -3.15482919928290    0.09430872588760
N        -2.59223283789695   -0.66556579629862    0.48983642317854
C        -3.78905299799770    2.66262019130180    1.25337000502486
C        -3.49676415020466    4.01065715634494    1.23634296244579
H        -2.55081583128592    8.45872094129832    0.12798356011119
H        -1.81466106434874    8.29343048380570    1.73728487393211
H        -3.58243621391280    8.53101810588332    1.59537199999373
H        -0.98558484602253    3.98630237593967   -1.02172412498114
H        -1.44870404137922    1.56051272150759   -0.93414499715455
H        -5.47560215083794    0.97521792513535    0.07147635421046
H        -6.31981106788177   -1.32356240986100   -0.35545359964507
H        -4.64993266945261   -3.19242067916720   -0.39813633863889
H        -2.26564671790291   -3.87496957531005   -0.33628311833602
H        -0.12771741083669   -4.24485757299556   -0.60881104863723
H         0.58020257172819   -4.22739519854923    2.33569712139564
H        -0.89008400772226   -4.96348667564498    1.69749135905399
H         0.27851388091009   -6.66345047707985    0.56747780689844
H         1.29501744160391   -6.42778211150044    1.98164289973055
H         2.91046745530614   -6.34612539074695    0.29338696924239
H         1.81236556073525   -5.66334535496085   -0.89407973560493
H         3.54694247239508   -4.02090916563277   -0.11568577169070
H         2.89692075923976   -4.15955137235012    1.51137790225488
H         1.69737535798894   -2.85591196752387   -0.94770383146834
H         1.72514768464969   -2.25986989464457    0.69906509922031
H        -4.59379774525928    2.30344610111513    1.87690758981630
H        -4.06122538425805    4.70168576772446    1.84088767429107
Cl        0.23774307164616   -0.26966518970155   -0.93276594871620
