67
 energy: -112.976405164244 gnorm: 0.000806985305 xtb: 6.4.1 (afa7bdf)
Ir       -0.20647072451410   -1.09961820429596    1.68320839177594
C        -2.17503149439054    1.04824226161282    3.50193064080409
C        -0.89169706292291    0.32007859692421    3.31920160414649
C        -0.55950616771453   -0.95627439521394    3.89824303779851
C        -1.45343340822451   -1.75653103920760    4.78179283581390
C         0.86054520538350   -1.14361882017917    3.77166258174207
C         1.64393019972430   -2.11084172593034    4.58795406908008
C         1.37012588313130   -0.09282917711719    2.95319496775355
C         2.80004983816423    0.21774499243370    2.67402357639211
C         0.27362484565852    0.83160218650012    2.69164019124193
C         0.43901649743310    2.22944672479168    2.23439961750775
C         0.70141656993689    3.18855789498579    3.21060342960504
C         0.85770339520644    4.50732804425672    2.82952699891134
F         1.11176173220457    5.43006005744731    3.77906862319197
C         0.76075382651312    4.91712372201029    1.51146380019152
C         0.49867818631438    3.93948011628970    0.56888749774932
F         0.39487505194914    4.30148663701855   -0.72522718084726
C         0.33447732956393    2.60669889397111    0.90235411974644
H        -2.24172837833543    1.90232371978032    2.83233437283139
H        -2.21336473487524    1.42312725996337    4.52597326211975
H        -3.03816231716501    0.40152982503330    3.36071154522424
H        -1.18666312341236   -2.80919652794524    4.75887558523578
H        -1.34838739708004   -1.40495543169324    5.80886931960968
H        -2.49452878201401   -1.64513721575334    4.49282098736594
H         1.61301649832945   -1.76458988646475    5.62295855887713
H         1.21179578698409   -3.10829084339984    4.56904013258526
H         2.68423767600564   -2.15000621490398    4.28127191789826
H         3.40001865028380   -0.68611644607448    2.62245428731176
H         2.89491924176739    0.76211665930436    1.73767650258434
H         3.19182981197152    0.84818791040023    3.47317737040177
H         0.78482623178836    2.91963189310627    4.25112563248104
H         0.88466220678228    5.95012683742308    1.23236317952704
H         0.14772191221987    1.88051432861003    0.12748089471656
F        -5.53783880246263    1.09264822600956    1.03816122169734
C        -5.12756048157657    0.58698859150973   -0.14127034028885
F        -4.53489746431080    1.59879212637544   -0.79372303254281
F        -6.22680388521712    0.26451855997887   -0.82638096118806
C        -4.19564019441400   -0.58002667410494    0.06106325760191
C        -4.57732058693184   -1.88799448075461   -0.24242630691743
C        -3.65584396042702   -2.89705623744285   -0.04009034294636
C        -2.40139193164433   -2.57835487567286    0.48439779218936
C        -1.30437380293846   -3.49301917125292    0.59363758130291
N        -0.16160908486615   -3.03238652972478    0.98816242069154
C         0.99586544315687   -3.88403173165365    0.75910614461487
C         2.26977833373092   -3.31470760337355    1.36975994664551
C         3.45871924412133   -4.23542808329026    1.09236349339531
C         3.66024182722352   -4.42161298755703   -0.40692714740376
C         2.38471674261555   -4.97055303839025   -1.03572247012820
C         1.20561899549991   -4.04303525388702   -0.76179750075120
N        -2.07407263246536   -1.30950546101921    0.83023947346209
C        -2.93873403986968   -0.33232225180083    0.59486711511792
H        -5.55840435263826   -2.09517077387830   -0.64090272542332
H        -3.89134126666156   -3.91924096898839   -0.28930572944289
H        -1.42005118949227   -4.51555185735391    0.25150454733733
H         0.78986711619447   -4.87184646242046    1.19019208359259
H         2.14389018652330   -3.21460093958434    2.44275082915544
H         2.45824944735474   -2.33258325997603    0.93238762934295
H         3.28607155925982   -5.20726248261968    1.55933532895017
H         4.35859122460442   -3.80851570606658    1.53615901119940
H         4.49091607668623   -5.10452133017194   -0.59051583947459
H         3.90845100340297   -3.46268580777346   -0.86531285679628
H         2.51373172595898   -5.06989489410343   -2.11451207674070
H         2.17550384309688   -5.96318544127928   -0.63104908238769
H         0.30469332462764   -4.44049749413857   -1.22980861915692
H         1.40145675490334   -3.05824422459328   -1.18682490949108
H        -2.62700086634284    0.67632483995961    0.82388997962447
Cl        0.59160570663156   -0.51969395465643   -0.48262226620781
