72
 energy: -121.409306886894 gnorm: 0.000937008378 xtb: 6.4.1 (afa7bdf)
Ir       -0.40492011751118   -1.09153683363516    1.42990442494047
C        -1.81041625804533    0.70820045885708    3.98805198844502
C        -0.60027203447286    0.08695950285933    3.38399112348342
C        -0.15246326387248   -1.25052742774312    3.64612603131401
C        -0.78565183653138   -2.19204102902246    4.61215779383484
C         1.14797726194140   -1.40806073754888    3.04806222650758
C         2.10211384246269   -2.51818201093079    3.31556923628840
C         1.45353548105194   -0.22001718447337    2.32800241770446
C         2.77225161074299    0.09299892044148    1.71153941981903
C         0.35981818250482    0.71715358571663    2.53242535465919
C         0.42816446429902    2.15189936526597    2.20856197545214
C         0.31911432710555    3.08652034090461    3.23718836478033
C         0.43134098477172    4.43073490483299    2.93711563553502
F         0.33129907506435    5.32729830611718    3.93955462466664
C         0.64186804712689    4.89284554164630    1.65018320851432
C         0.74425751397556    3.94009510120259    0.65120390462746
F         0.94625613302402    4.35467531254023   -0.61546359960565
C         0.64551499536858    2.58474238009344    0.90133939320183
H        -2.02840908214697    1.67145768790478    3.53715154910124
H        -1.63689515840695    0.84967262219887    5.05533032708537
H        -2.68002620103291    0.06328985236770    3.88279119783741
H        -0.50607453234069   -3.22004983665758    4.39909679798593
H        -0.44520350057592   -1.95196274872328    5.62016794904069
H        -1.86853757555029   -2.10528968750695    4.59384739411321
H         2.66021511890097   -2.27878622609269    4.22176634833384
H         1.58937787878157   -3.46234827710063    3.47653261940335
H         2.81042569859425   -2.63156810448147    2.50057667330384
H         3.06216618335678   -0.67311037485607    0.99619083020616
H         2.74701406323106    1.05138955062257    1.20238859491710
H         3.53097768843462    0.12883501678171    2.49352587008710
H         0.17655955754231    2.78114442048175    4.26050687196296
H         0.72470653945638    5.94506603909110    1.43572959236187
H         0.71155232006540    1.88114206095577    0.08512686957131
C         4.92216254237192   -6.46017483212161    0.17055373483263
C         3.63061739803399   -6.72179026546768    0.86436450103817
C         3.40226599541324   -7.87585456986203    1.53461635950601
C         2.15758848017505   -8.16537315423582    2.21224601199746
O         1.90804441558550   -9.17992678916506    2.82476620047870
O         1.18331223434832   -7.20481476843975    2.15448970775704
C         1.37178014035945   -6.04171654864256    1.49334071803517
C         0.30546697442249   -5.14547878521201    1.49037235277450
C         0.43876151314844   -3.92265655879170    0.84692724715045
N        -0.62012772148470   -3.00531819824664    0.83314293503132
C        -1.80704088335737   -3.38833279503665    0.48506104205311
C        -2.82526944833388   -2.38445877354477    0.44100820049869
C        -4.14776470739384   -2.65615300321440    0.04057162364179
C        -5.04532718709937   -1.62828674036712   -0.02805324763172
C        -4.61213135351885   -0.31248001211947    0.23964822232778
C        -5.47055141169358    0.79873519994294    0.12384215689402
C        -5.00548745681374    2.06765982922972    0.34142907854484
C        -3.65633147837059    2.27371644039659    0.67199464162664
C        -2.80069411820291    1.21498244859458    0.81473507569610
C        -3.25151862643477   -0.10421065019391    0.62127041483223
N        -2.40520342074680   -1.15280122115323    0.77158091759709
C         1.63726075965978   -3.59476585517572    0.20049970723056
C         2.67633783203683   -4.49428832355419    0.18484214029900
C         2.57425770288266   -5.73385804049916    0.83297265796072
H         5.40232106612282   -5.57569001931699    0.58388765746784
H         4.75135769869972   -6.28929862682031   -0.89056446381736
H         5.59270057558183   -7.30669054671381    0.28446888705894
H         4.14715921508008   -8.65307442903289    1.59790803234276
H        -0.59939257199208   -5.41354338175286    2.01228259355322
H        -2.00926553355980   -4.40642165624728    0.17294425470109
H        -4.42524339844736   -3.66963868744191   -0.19761653366408
H        -6.07355672862129   -1.80122827604103   -0.30601541199080
H        -6.49886015868559    0.62686584884419   -0.15422616238267
H        -5.66534723463405    2.91552584157211    0.24571034649574
H        -3.29154124512635    3.27941501907702    0.81071348874454
H        -1.75808503629462    1.37886883683133    1.03197435366023
H         1.71078950373997   -2.64783031869993   -0.31154335652041
H         3.58598346047337   -4.24277661078506   -0.33407846696032
Cl        0.11411280537980   -0.51204151875288   -0.81550662834911
