68
 energy: -118.319389842472 gnorm: 0.000214661400 xtb: 6.4.1 (afa7bdf)
Ir       -0.16013494813748   -1.28795631679110    1.32593866794480
C        -1.93080234665234    0.48516196107543    3.60705299778699
C        -0.61269985347475   -0.02410811481371    3.13819103855411
C        -0.00041891269651   -1.24185863040833    3.57944133820285
C        -0.57000402730306   -2.13186772549159    4.62967618858757
C         1.33110749622792   -1.29490318793224    3.02722894337721
C         2.42972406426055   -2.22766902976832    3.41063323553741
C         1.53042445914839   -0.12249642385860    2.23676563290420
C         2.83272814186223    0.29719375389139    1.65754311577487
C         0.31086840010305    0.65366122883937    2.27076076875670
C         0.18188954727057    2.02322731148372    1.74933105817763
C        -0.15029245406368    3.06589165127838    2.61257120126160
C        -0.21337293532266    4.35356933619275    2.11409636139705
F        -0.52707835038851    5.35793458324147    2.95741961564579
C         0.03515472785700    4.65409754474071    0.78653139800538
C         0.35938179459621    3.59601074726859   -0.04499310761976
F         0.60650476346249    3.84981429469740   -1.34597130494436
C         0.43889834904589    2.29251829581799    0.40604089649491
H        -2.27444485502354    1.31713428785859    2.99921267642124
H        -1.83058910319239    0.82956942166739    4.63701003671045
H        -2.68323507760240   -0.29999776122154    3.59936675779545
H        -0.07073944011430   -3.09488146850177    4.65190192120222
H        -0.43611982914334   -1.65725037882017    5.60252130065153
H        -1.63501809614338   -2.28722619286604    4.47900349865639
H         3.17193441638968   -1.67609371929128    3.98824358541726
H         2.06374941453702   -3.04793235908828    4.01747418544982
H         2.92533122032242   -2.62870552187732    2.52944219264219
H         3.17493783136782   -0.41719698797831    0.91093676998360
H         2.75548250786209    1.27415634124256    1.18937791832200
H         3.58018802904925    0.33674977148695    2.44992301521444
H        -0.32961203771190    2.89282304858230    3.66070620503223
H        -0.01803144360720    5.66483159940021    0.41800221070428
H         0.68185898696142    1.49694386739950   -0.28169347374621
C         1.61227429839355   -3.15520640994545   -3.79020055922758
O         1.87317148737491   -3.71429238461332   -2.50547577308763
C         0.82489485015389   -3.94584379752746   -1.73106104480289
O        -0.32518995093104   -3.76026162789571   -2.07454547546309
C         1.23054551724841   -4.52376312531679   -0.41557835469526
C         2.30590557641715   -5.39156221030515   -0.36562911622775
C         2.71320115673158   -5.97988917122350    0.83807547913961
O         3.75583998215181   -6.82171669734935    0.75545269003468
C         4.23516509765164   -7.45072241159965    1.93263044944044
C         2.02314795312323   -5.66169549709165    2.01056713357796
C         0.97626563994839   -4.76208988530284    1.97283954097180
C         0.56117574683268   -4.18767033645901    0.77736757823551
N        -0.47049893066492   -3.23586189727065    0.75680990210311
C        -1.54500897146699   -3.47894469394151    0.07682951698861
C        -2.43252564249171   -2.37603935414326   -0.15087519258645
C        -3.60978218625309   -2.45212115419559   -0.89795199826964
C        -4.34532893705805   -1.30642003737954   -1.11981271836145
C        -3.86778535156843   -0.10816353123802   -0.58938957334631
Br       -4.82341792694949    1.51636493803238   -0.84009988957967
C        -2.68908177842322   -0.09512520578917    0.14323957451168
N        -1.99354960234965   -1.20300098525373    0.36899073052254
H         2.57657116830746   -3.07343411358081   -4.28321584160228
H         0.93768791286940   -3.80126323070743   -4.35478941700497
H         1.15333020211552   -2.17115381533118   -3.67718337036364
H         2.84218871176817   -5.64297472297728   -1.26574762526076
H         4.58230308598103   -6.71343799654782    2.66031061134424
H         3.46898872603313   -8.08838487260443    2.38020629212292
H         5.07368622724343   -8.06430153336154    1.61037333601335
H         2.29654953670854   -6.10957584257989    2.95157500791954
H         0.43636543697311   -4.52328339259104    2.87404132217094
H        -1.76884727088034   -4.46294679756463   -0.31330105638257
H        -3.92197431488615   -3.40069920587657   -1.30368544106999
H        -5.25946128695218   -1.32821252808663   -1.69161441317126
H        -2.30400451190279    0.83000994206538    0.54642367807101
Cl        0.80872890906018   -1.06748664191670   -0.82855882896441
