76
 energy: -112.191822135139 gnorm: 0.000270975579 xtb: 6.4.1 (afa7bdf)
Ir       -0.68580862876757   -0.37210056444811    1.43712169227461
C        -2.19832388449777    1.35881384471813    3.98391402485365
C        -1.02446276537613    0.59981081828289    3.47357037227335
C        -0.86370414474553   -0.82284779308234    3.61918195704704
C        -1.81490603245909   -1.72074599902032    4.33697209268542
C         0.47684076262849   -1.15339554649154    3.23619818149465
C         1.18302308097537   -2.43257995980348    3.51816530366496
C         1.09890585898324    0.02607729164420    2.72695071463911
C         2.55123985650592    0.15301019541740    2.42234078678106
C         0.16696254502241    1.12833688018547    2.89746546230249
C         0.54708888176304    2.54442901150936    2.78737421009915
C         0.37746356060307    3.38722141745064    3.88480960868710
C         0.77928669514375    4.70613020811557    3.78850100098981
F         0.60899371019390    5.51242057640974    4.85757149897724
C         1.34505890542504    5.23262070157129    2.64167841211001
C         1.49939418357591    4.37096530055248    1.56876973964302
F         2.03765280342671    4.85260153470249    0.42964811474872
C         1.11740753205176    3.04496798945374    1.61637964298677
H        -2.19732528046451    2.38164298146770    3.62289146937562
H        -2.15879698670353    1.37360601858597    5.07398252660686
H        -3.13088429038295    0.87789362619556    3.69816020798726
H        -1.70733120539008   -2.75100411555614    4.00957797722253
H        -1.61094956380517   -1.68219112279155    5.40769847812253
H        -2.84299063806514   -1.40833390955899    4.17772195090624
H         1.68424681402723   -2.33706510650130    4.48298162298833
H         0.49301372300068   -3.26906736395309    3.58552715596830
H         1.94694645130756   -2.63743963666000    2.77304943225458
H         2.90211721097707   -0.66730589255556    1.80044276755379
H         2.77096834435252    1.08935520520288    1.91944179609045
H         3.11133605319751    0.12360691159723    3.35810509862590
H        -0.03666100171480    3.02655662475046    4.81170025627040
H         1.65129647333712    6.26373337993718    2.58562834095402
H         1.21836645240361    2.42391708368242    0.73948251460652
C         4.05944415116807   -2.08479496839218   -1.40492678673093
C         3.74573835440958   -3.29061390711950   -0.96886642199594
C         2.42710216290072   -3.72866207258488   -0.40401350169793
C         1.36715259567316   -2.63236910387587   -0.34802316752760
C         0.08122702837014   -3.15816291263899    0.29219498810135
N        -0.92927244789293   -2.13786476029891    0.45155550160337
C        -2.09972124042144   -2.34539007218392   -0.02603537673374
C        -3.14042240872115   -1.37293693180138    0.17911645081970
C        -4.46156862725774   -1.70408589818395   -0.05440698961705
C        -5.43951344338297   -0.78029590976065    0.31194184974738
C        -5.04772055179257    0.45174076095413    0.75640901353212
C        -3.66874721186715    0.80587964444486    0.81552989824064
N        -3.31942504158540    2.08247488946311    1.03459325077648
C        -2.06484479586745    2.63422375426885    0.56077351859001
C        -2.33820443953989    3.86063888407893   -0.30699050734706
C        -2.93806364756020    4.99129266941221    0.53684856961510
C        -3.66460146815866    4.40682250801282    1.75155912432854
C        -4.32368062109746    3.07774496556482    1.40057850342987
N        -2.73291775320961   -0.16578981295209    0.65622936969920
H         3.36597793139683   -1.26193144053097   -1.40266652497018
H         5.03990654169278   -1.87012250242586   -1.79551231864795
H         4.48786774715602   -4.07934610397226   -1.00362777319825
H         2.60592160489697   -4.12775465846524    0.59978887387894
H         2.06189327389048   -4.56271183675472   -1.01085467157372
H         1.15043512278623   -2.27835576651512   -1.35571144508858
H         1.73898605194593   -1.78544670868700    0.22715238606771
H        -0.31721462274825   -3.97802177562293   -0.31444257801320
H         0.31578003551439   -3.54884555004115    1.28579466115951
H        -2.34110509152459   -3.25879388453492   -0.56203101634118
H        -4.71894085075298   -2.66598797842869   -0.46231490100815
H        -6.48608761860273   -1.02582269211859    0.22880550770174
H        -5.79363745471277    1.17870451423979    1.02100388115844
H        -1.43118579212028    2.92622000701621    1.39875113435603
H        -1.54729919977501    1.88101259016662   -0.02871599431165
H        -1.40431946411669    4.17961446612395   -0.76848486129325
H        -3.02033187271987    3.57926472000178   -1.11047728977410
H        -3.63026627785299    5.57500514890008   -0.07048449627171
H        -2.15419830072163    5.66870857300820    0.87735747939021
H        -4.43398027646811    5.09672393768152    2.09812384933726
H        -2.96405651793859    4.26505944577386    2.57519703766776
H        -4.88082501894740    2.71533905747360    2.26789532250669
H        -5.02186205850730    3.24385192446049    0.57196541241171
Cl        0.20513703753014    0.39914019584978   -0.63994837377570
