75
 energy: -127.618062188278 gnorm: 0.000306347003 xtb: 6.4.1 (afa7bdf)
Ir        0.35413418999614   -0.59078048692061    1.08233416876043
C        -0.66223390835757    0.66177047620167    4.00608177775027
C         0.47289289165678    0.27677514161513    3.12211915999003
C         1.15559922882718   -0.97857075901018    3.14526325534541
C         2.24900522504464   -0.90690107525307    2.21173462346455
C         3.34912774529680   -1.90394628295015    2.08304179898268
C         2.29753478060514    0.43339348271293    1.68281833862362
C         1.17705432532394    1.15144170871826    2.20110920707388
C         0.90422357387815    2.57298631359863    1.95992203144648
C         0.66560287012548    3.45430612606585    3.01380226647018
C         0.41872286611287    4.78970020509295    2.76484127455402
C         0.40375508160197    5.28803455314616    1.46261641030249
C         0.13899209196558    6.71001543034433    1.20230219648238
C         0.87770314986723    7.40630345996162    0.24767774557525
C         0.62955262750284    8.74491006856205    0.00584472228075
C        -0.36508899774463    9.40692302058627    0.70730410114413
C        -1.10825268882269    8.72259777903146    1.65548501385816
C        -0.85618077978497    7.38612894332422    1.90491918718733
C         0.64992392932806    4.40575060835037    0.41150626798198
C         0.89664972020439    3.06964674007514    0.65371739596162
C         3.40146340450121    0.98196154216809    0.85479453536586
C         0.88355581700320   -2.11300667963274    4.06906105329265
H        -0.27795518746323    0.90899714916149    4.99638798064679
H        -1.36525813153346   -0.15974279456413    4.12227298841487
H        -1.18757735509676    1.52845482710664    3.61384715796230
H         4.13071250346085   -1.66112851377822    2.80405564963528
H         3.78341612156020   -1.87736479781283    1.08812867764333
H         2.99412195900093   -2.90904293162476    2.28838399849856
H         0.70672972567843    3.10132618170843    4.03170410131021
H         0.25674162126909    5.46362546953291    3.59235447499169
H         1.66475370678307    6.90182266638201   -0.29344188345396
H         1.21416682919525    9.27504125171848   -0.73198370549163
H        -0.56080321372253   10.45155390806907    0.51498602088360
H        -1.88787785094598    9.23349006309536    2.20154893844975
H        -1.45190076029879    6.85453115302110    2.63222986832840
H         0.62629328282607    4.76728513656840   -0.60532611615163
H         1.06277995432210    2.39475730318889   -0.17366557304903
H         3.33367112688895    0.62053252931141   -0.17131503438041
H         3.36325398196079    2.06807359058275    0.83830212696689
H         4.35716494991988    0.65583184922052    1.26071737463135
H        -0.13706132576952   -2.08720461585886    4.43813642811142
H         1.06380638833015   -3.06882368683958    3.58291757353116
H         1.55711468850846   -2.03734240054222    4.92329250346689
C         3.86779886682300   -6.40195724444945    0.08602273038244
O         3.17459300610613   -5.17141055742574   -0.03399416637707
C         1.94747508252544   -5.05149451395129    0.49665095060958
C         1.27840534679638   -6.05937527973470    1.19432370940383
C         0.00829046921801   -5.81589487616077    1.69589443884855
Cl       -0.81376182938500   -7.07865558796488    2.55816449603203
C        -0.62412941497499   -4.59842996769749    1.52169652630773
C         0.05529225720395   -3.59082017158217    0.83151135590655
N        -0.55233267980192   -2.34069781939374    0.63729746982308
C        -1.75467413428973   -2.28372957005634    0.15112822943461
C        -2.33678653102193   -0.98518415684226   -0.00380145363133
C        -3.58423665833154   -0.73804145886391   -0.58643919790475
C        -4.03286866036294    0.56233772328338   -0.68999857137488
C        -3.20911572482617    1.58438356114218   -0.20913552716032
C        -3.63423974275109    3.02475275668157   -0.31612292887649
F        -3.33648702113246    3.54636948072437   -1.51966113613903
F        -3.03674453180331    3.80394106299842    0.59546755357056
F        -4.95601459556574    3.17879545475350   -0.15272071214909
C        -1.97830975640221    1.27357666710853    0.34738896417314
N        -1.55415939481969    0.02263624188199    0.45801387709196
C         1.32882554740024   -3.80829134592222    0.32925463324877
H         3.32286731384864   -7.21355237668985   -0.40205509702548
H         4.81792211156833   -6.24760573529034   -0.42064849982773
H         4.04948534267976   -6.65302409744347    1.13390056055051
H         1.72623753935273   -7.02618792920096    1.34900017792485
H        -1.60290735879521   -4.42280922179827    1.93443645734085
H        -2.28640590593134   -3.17634957122823   -0.15542128030549
H        -4.17752977578678   -1.56025036870059   -0.95295509277891
H        -4.99302269055599    0.79282468885778   -1.12538227212157
H        -1.32444035762054    2.05604009796248    0.71059304182613
H         1.83184430634229   -3.03798940880952   -0.23253431438189
Cl        0.93024441496817   -0.41305212991075   -1.20933500457645
