82
 energy: -122.800144522366 gnorm: 0.000989648730 xtb: 6.4.1 (afa7bdf)
Ir       -0.75731003664601   -0.35730473766435    1.72733396307160
C        -1.96947621913102    1.73378458408312    4.21878755089104
C        -0.91681845111209    0.82696002084095    3.67552094024886
C        -1.00464787594534   -0.60702855026975    3.90156805552935
C        -2.10478425467068   -1.27789322379939    4.65295179635215
C         0.25032948042665   -1.18824481732948    3.56429859608708
C         0.68626363277156   -2.57222683242775    3.89262681949081
C         1.05331449990253   -0.16040121620056    2.97346407638984
C         2.49237681035601   -0.30651808356869    2.61169350126347
C         0.36006172817252    1.11425748795477    3.12222022847196
C         1.12020698936356    2.41063390109896    2.96771071087893
C         1.27994241304205    2.88570460721939    1.51539760808773
C         2.29834391961607    4.02072557159794    1.45315679398640
C         1.86436670374815    5.18542624915452    2.33955567115916
C         1.63779769292468    4.71372671733599    3.77375313166676
C         0.60813562083617    3.58517636472957    3.80594808653265
H        -2.95971398202460    1.36064022362880    3.97057755907476
H        -1.87375990905485    2.74923274279736    3.86052863777538
H        -1.88421763781864    1.74642457680308    5.30627002631818
H        -2.08497023825822   -2.35243363617126    4.49658841661470
H        -1.98270102880520   -1.08780143575181    5.71977531976942
H        -3.07740345749733   -0.89749642220045    4.35262414208141
H        -0.13219679053633   -3.28234607090743    3.81088210790240
H         1.50286085121269   -2.89956038185817    3.25567300304936
H         1.03787919893730   -2.58365733062800    4.92520598679144
H         2.72066264664256   -1.32902183195248    2.32378373204617
H         2.76197084456448    0.35313675903761    1.79217342836473
H         3.10931617558010   -0.05152495503084    3.47474397035463
H         2.12975923308452    2.18219877473353    3.33462585103406
H         0.32235618419193    3.24097135876270    1.13553744707291
H         1.59770512389944    2.06512607375613    0.87421531568606
H         2.40624984949394    4.35986327035813    0.42112607158444
H         3.27451136119282    3.65853104024350    1.78521719266841
H         0.93845141962414    5.61258283793349    1.94768504081788
H         2.62336240971990    5.97011774215587    2.32113849726882
H         1.28802978708933    5.54710374934099    4.38647726811859
H         2.58262938056286    4.36548691966828    4.19718657766296
H        -0.32173058125853    3.97461469337560    3.39117683803541
H         0.43643995760695    3.27196048477121    4.83639298186178
F         3.32921953849209   -6.87133029068300    1.21440717779762
C         3.45818947267134   -5.78873436127579    0.43122811506034
F         4.63292950368395   -5.22057320922449    0.76245472696631
F         3.61463609351453   -6.25356343949780   -0.82709916816870
C         2.30417790959095   -4.83434048403229    0.54517332603533
C         1.07769995963171   -5.27063997511087    1.03146862950876
C         0.02076766266263   -4.38411483000135    1.10740336433062
C         0.18357504107089   -3.05721827845951    0.70198833581501
N        -0.88717408280325   -2.15866657789137    0.80742672290669
C        -2.05787915759350   -2.50641679552111    0.39616751692897
C        -3.16546518764799   -1.61681703554738    0.59549297138694
C        -4.46085188853647   -2.06730016646511    0.40765330327957
C        -5.50492174778358   -1.21721183540291    0.76806298172469
C        -5.21087990006509    0.06032495456550    1.15795652879908
C        -3.86511347485604    0.53114317053679    1.16754570092346
N        -3.61463508172925    1.83708673305343    1.33494451368028
C        -2.40764036766026    2.46372864055905    0.82863921815751
C        -2.78211043511550    3.64350209338890   -0.06614612273498
C        -3.45433706689179    4.75153091174811    0.75305379368737
C        -4.13531588021868    4.14885368258829    1.98528995658371
C        -4.69093438755080    2.76368710052227    1.67654313629309
N        -2.85346187454007   -0.36131997257641    1.01603523696066
C         1.41937558953338   -2.62783997839501    0.22048193356982
C         2.47370323561428   -3.51570312812130    0.13407098415737
H         0.95470486241263   -6.29259667037812    1.35394955239136
H        -0.92663417972507   -4.71568036767894    1.50326467597505
H        -2.22331288403791   -3.45640238230673   -0.10170538741491
H        -4.64364830943435   -3.06158902564239    0.03860223813631
H        -6.52808575114113   -1.55452983444975    0.72231290400565
H        -6.01106657913619    0.72943090030968    1.41778831281343
H        -1.84722926623528    1.73360224068391    0.24843729252409
H        -1.78345258066414    2.81165874092361    1.65203940027386
H        -3.45369704055304    3.28876624531690   -0.84932072817861
H        -1.88334438633947    4.01636745330573   -0.55624989060736
H        -4.18683770566519    5.27021830506701    0.13367484643301
H        -2.71945761784672    5.49149754072687    1.07156501049397
H        -4.95558883243781    4.78775526055453    2.31243003429082
H        -3.43104023943481    4.07980175998597    2.81359754362735
H        -5.21592767980926    2.38754674929917    2.55781184735912
H        -5.40333021836411    2.84700045093294    0.84775892096450
H         1.53298923154213   -1.60638919333709   -0.10599362647209
H         3.42980812347231   -3.18963461893987   -0.24493172744102
Cl       -0.01738687193329    0.33409929137857   -0.45129704491147
