71
 energy: -109.810740677084 gnorm: 0.000521070265 xtb: 6.4.1 (afa7bdf)
Ir       -0.51502445012347   -1.06579933791580    1.37664596338947
C        -1.71547657521855    0.90838810383263    3.89701182822088
C        -0.57256222699833    0.21489572761690    3.23582270879148
C        -0.18334167550680   -1.13040789786727    3.57696311691325
C        -0.81950463706748   -1.96696505416032    4.63401609695841
C         1.09164868151931   -1.39522706079312    2.96473251161890
C         1.96711652151314   -2.55339541114873    3.29365650042063
C         1.42791424264131   -0.27569853486177    2.15701640084291
C         2.71444858910208   -0.06664769669787    1.43537060980222
C         0.38943516349460    0.73655820714880    2.32009991128464
C         0.56379173532941    2.15305031222498    1.84146533062587
C        -0.61872000451555    2.72721850867828    1.05413757987481
C        -0.26062717576333    4.11814196024157    0.53644797272759
C         0.09260320426934    5.04572537279032    1.69689026074093
C         1.24750144524740    4.46993472617294    2.51242740542359
C         0.90419659717911    3.07376864494843    3.02502444236032
H        -2.60900625478353    0.28751424860664    3.88898134594201
H        -1.93625377666568    1.86409164524595    3.43613299630171
H        -1.44967524188612    1.08562613228242    4.93975464541681
H        -0.60630515496169   -3.02045981614859    4.47787324276567
H        -0.41527802735895   -1.68154195542416    5.60603121040289
H        -1.89561501661355   -1.82245925892515    4.66043361251617
H         1.39959782660108   -3.47736922354070    3.36646982355336
H         2.75434540281089   -2.67887056505787    2.55687295642842
H         2.43328843845792   -2.36621558621763    4.26183164313704
H         3.24367832215275   -1.00222545314977    1.27421775710621
H         2.54511099177858    0.39739151420243    0.46597049955131
H         3.35481887451768    0.59218156782722    2.02265665017730
H         1.42106603499387    2.16041948371745    1.16231457984693
H        -1.49976756467660    2.81600265006758    1.69078514194907
H        -0.84610343337244    2.06326009437064    0.21810528070709
H        -1.09902205255545    4.53265932357759   -0.02691836877618
H         0.59002138074374    4.04623944566221   -0.14466762493624
H        -0.77994308758747    5.17263834975362    2.34208344434125
H         0.36584979838440    6.03038952550773    1.31307161502487
H         1.46915156020953    5.12535132830642    3.35713880170036
H         2.14190202925247    4.42070333342933    1.88714236021287
H         0.05533454125632    3.13846332382923    3.70596301378094
H         1.75009773984555    2.66387313872861    3.57964322599402
C        -4.93606613692285    2.38362481299863    0.75453621886084
O        -5.35316147927298    1.15258554755976    0.18090051007993
C        -4.54232970705553    0.10436697511869    0.20299480641276
C        -3.28280773686063    0.06347167000354    0.80583282872890
N        -2.50328145622060   -1.01324780068531    0.78580950847926
C        -2.93073497117104   -2.13074782428662    0.15310842769171
C        -1.97846134629720   -3.19414184112055    0.12894546212551
N        -0.82160082131915   -2.96320492321716    0.66629193633912
C         0.15865530336225   -3.96366313690727    0.66186449277829
C        -0.15756999247620   -5.29160038228099    0.96069695953586
C         0.83126659029196   -6.25907018310561    0.94004562273215
C         2.13766803576331   -5.92410277651577    0.62375927198586
C         2.45785312302447   -4.59822905216396    0.34085371401775
C         3.85809722718909   -4.17866805660435    0.06580823827993
O         4.24905435775502   -3.04204874568543    0.21543457445805
O         4.63776939854626   -5.17087797082962   -0.33527100281564
C         1.47152931534409   -3.62007359702797    0.36125637917671
C        -4.19003862644906   -2.19035128194619   -0.45469673183853
C        -4.99525465540171   -1.07777731067725   -0.42714664749723
Br       -6.71827318754975   -1.07404315178722   -1.22495031925337
H        -4.80311153308977    2.28336221822901    1.83334436010633
H        -4.01520619726811    2.73791507689522    0.28725514793389
H        -5.74411946490433    3.08234607025532    0.55008398986402
H        -2.88795813294539    0.92954556375958    1.31164501450049
H        -2.20550402389653   -4.13088478410861   -0.36639846896700
H        -1.16781599424841   -5.55355905862322    1.23577974284544
H         0.58198212750090   -7.28185509759821    1.17566305754467
H         2.91089322092307   -6.67483852877596    0.60835690423819
H         5.55292545916910   -4.87923196651009   -0.49860859025855
H         1.71872871743461   -2.60017519433106    0.10815486531120
H        -4.51167222947656   -3.09397802395860   -0.94645756890139
Cl       -0.09791694920498   -0.46593506297544   -0.89974619764537
