68
 energy: -118.015032822262 gnorm: 0.000771695139 xtb: 6.4.1 (afa7bdf)
Ir       -0.39687113116915   -1.06889113336152    1.55973060526248
C        -1.93370497092229    0.44783167763146    4.18219673307122
C        -0.66934756278254    0.04713278045068    3.50458793326409
C         0.05944240752823   -1.15435638001759    3.77476170098514
C        -0.29789369832959   -2.13158096080206    4.84118218091254
C         1.30025786092713   -1.09754645354724    3.04093651012892
C         2.45980448436140   -2.02234972132918    3.19780913257665
C         1.33747555078308    0.13590389923605    2.32790976218720
C         2.51937998810385    0.67778155880238    1.60639976127751
C         0.09296364732984    0.83052255989665    2.57183552895541
C        -0.16866935623031    2.22587667835541    2.18473340308393
C        -0.39134314976104    3.18358391544035    3.17254824463497
C        -0.57265973892797    4.50167142639286    2.79917517969636
F        -0.78084722279187    5.42394198424895    3.76143291945511
C        -0.54910818748773    4.91336519593985    1.47854873355389
C        -0.33437744106708    3.93663332673743    0.52153331233853
F        -0.31302142350306    4.30088631019248   -0.77692157069275
C        -0.14351282705705    2.60694735416059    0.84486223913786
H        -2.38845923360528    1.30538708974606    3.69482715854098
H        -1.71201601213287    0.71537635701340    5.21607226228786
H        -2.64610933402802   -0.37363004518493    4.20344554243619
H         0.32519963032887   -3.01797489476452    4.78792112303081
H        -0.13638379153209   -1.66136885875886    5.81185223335828
H        -1.34517456556782   -2.41721965366726    4.78359811860064
H         3.06792296513263   -1.69141882531078    4.04030725699060
H         2.13431533240624   -3.04097012153625    3.38958013520863
H         3.07918395741112   -2.01643581231812    2.30521770105806
H         2.77543685234803    0.05561316152689    0.75055945112838
H         2.32590307023189    1.68531706761218    1.24949988320270
H         3.37656674717247    0.69315226183656    2.27856164679798
H        -0.39666831527115    2.92088132326688    4.21737780261663
H        -0.68986141647685    5.94640614352501    1.20790471155319
H         0.01088427088849    1.87799683147640    0.06428291647319
O         2.84719557379046   -4.94864860760788   -2.25292008551671
C         2.98240933506020   -5.50833423712937   -1.18829333552647
O         3.90509077602398   -6.44038028445471   -0.97480292996447
C         2.13905563738921   -5.23180308490912    0.00558750743548
C         2.30177140712354   -5.94117305302807    1.19362574877482
C         1.47992029301774   -5.66755300441803    2.27379694950720
C         0.50862681344332   -4.68472980967858    2.18615485423250
C         0.34860262367844   -3.97169639337344    0.99940175528125
N        -0.64906977427256   -2.98033771656078    0.90301371357869
C        -1.66870293872146   -3.17979829503706    0.12995819149858
C        -2.62257164530077   -2.12166902614912    0.02981706921917
C        -3.79244192163905   -2.16867088993814   -0.73563205006441
C        -4.63894776786429   -1.08618291928851   -0.74351443266026
C        -4.30826022524157    0.04890265622708    0.01757028632332
C        -5.16764775647543    1.19867892170912    0.08048346185231
C        -6.36226624034828    1.47985782844465   -0.55305848065899
C        -6.76345155498058    2.74873853081436   -0.09783329847911
C        -5.79657236788578    3.15591152200914    0.77844533507192
O        -4.83506078535002    2.23561570806955    0.89089431948634
C        -3.10656552065955    0.02635658196837    0.73889443892381
N        -2.29633708794950   -1.01864537616875    0.75417495245334
C         1.15714315699066   -4.25203855105349   -0.09479306433980
H         4.44322823761264   -6.60926614099214   -1.76861611230808
H         3.06147926387165   -6.70290028194060    1.25808678468109
H         1.59432777201615   -6.22732930788178    3.18893124720591
H        -0.15257573736045   -4.48571532386953    3.01438040138276
H        -1.79661773200870   -4.10880323703356   -0.41361578452980
H        -4.01069760348696   -3.05253337869759   -1.31285988334473
H        -5.54665492534963   -1.10481421462502   -1.32317860425701
H        -6.88480787379236    0.86443152294015   -1.25523470928697
H        -7.64517596563234    3.28668947499285   -0.37780766527619
H        -5.69764316632554    4.05007773319156    1.36155357853408
H        -2.81575530915185    0.89328536702815    1.31340596790812
H         1.04577022589661   -3.70304787257768   -1.01709333362863
Cl        0.29338439757457   -0.66021288381632   -0.68217004656412
