72
 energy: -115.528806069414 gnorm: 0.000678577961 xtb: 6.4.1 (afa7bdf)
Ir       -0.51436858631309   -0.38491346429286    1.48913088294304
C        -1.91264385953877    1.45200033866546    4.00119989204856
C        -0.70950868464104    0.79254708721123    3.42143992294431
C        -0.29031966759774   -0.55408693016183    3.69864987475855
C         1.01668575331372   -0.73942622804281    3.12076594616376
C         1.91809923029638   -1.88943711020592    3.40791094805758
C         1.34712497134243    0.43711395105438    2.39085629613352
C         0.26882646750234    1.40067854870498    2.58208505596423
C         0.36473030477007    2.83612373099845    2.26974535919143
C         0.33264711365897    3.75462653182727    3.31876543527853
C         0.48618566343636    5.10408513447328    3.07202765327665
C         0.67314427057542    5.57773384218333    1.77429518588836
C         0.85874755471165    7.01364478057629    1.51614548852443
C         1.80033150297602    7.44681694659159    0.58422829445267
C         1.98825207350859    8.79597439059383    0.34702263761626
C         1.23433574407285    9.73551991984453    1.03150595869012
C         0.29239035247166    9.31633903096610    1.95689281334469
C         0.10787166872633    7.96760203387636    2.20053466038485
C         0.69169572824061    4.65535153876858    0.72903649356994
C         0.54078285049940    3.30444642892823    0.97071610130975
C         2.66095696090035    0.76330133015402    1.77092413501223
C        -0.94767953977777   -1.47251865735685    4.67066384355476
H        -1.74827784109143    1.60813824605457    5.06779909311965
H        -2.79729240477279    0.82738157012745    3.89655478803793
H        -2.08504805070681    2.41941438698071    3.53669837203161
H         2.41820638813392   -1.70694416797498    4.35990285846760
H         2.67803500574959   -2.00184448661270    2.64086886617836
H         1.36383611185886   -2.82050337696348    3.49098072043795
H         0.22024693635256    3.40629484485022    4.33402819452746
H         0.48756745791753    5.79896334525591    3.89820296397707
H         2.40489158111343    6.72234990376439    0.05817407594655
H         2.72727716729681    9.11677719618783   -0.37319476655327
H         1.38067217810134   10.78929869364336    0.84442711366697
H        -0.30059612967316   10.04536320964064    2.49028286462365
H        -0.63901503628158    7.65228426776259    2.91441681043360
H         0.81128296716581    5.00316675017290   -0.28593651001106
H         0.53502937510787    2.60705846082123    0.14761942948130
H         3.23711017407445   -0.13472576126487    1.56870086462664
H         2.52557563810825    1.31572817650244    0.84462012172237
H         3.22746321488879    1.39501199581469    2.45610856175757
H        -2.02675418875322   -1.34789958282891    4.66197469763219
H        -0.70682291131082   -2.50968214699920    4.45592191387184
H        -0.58864959971422   -1.24405597135608    5.67499774298032
C        -5.08313364549374    2.88773229922027    0.84681780129904
O        -5.42863182120654    1.64196146967999    0.25701349514416
C        -4.56722864743812    0.63609695546675    0.27119220281627
C        -3.29756611661710    0.65603015116869    0.85559951340707
N        -2.48107522254044   -0.39256413605094    0.84117192564307
C        -2.86691325498238   -1.53402736896368    0.22550560449589
C        -1.86768432423415   -2.55616232939801    0.20530895169117
N        -0.71984263641883   -2.26569504469083    0.72973160828509
C         0.31667780071606   -3.20946527212922    0.71636874157444
C         0.09294341149010   -4.51962462901543    1.14254361621769
C         1.12313459405623   -5.44034556462119    1.11930724383097
C         2.36439208374310   -5.04309347941786    0.64989123996706
F         3.36740212194251   -5.94285198735534    0.61523689996573
C         2.60780849009633   -3.74834227477111    0.21999536366235
C         1.58008375261021   -2.82634938915332    0.26571390827578
C        -4.12479747892916   -1.64844210484094   -0.37626689240242
C        -4.97387803473505   -0.56825102752064   -0.34968942774943
Br       -6.69961121585924   -0.63746816880761   -1.13909267663349
H        -4.19970703709135    3.31416784033563    0.36902027024181
H        -5.94134134160293    3.53291077075767    0.67221483752178
H        -4.92055993349984    2.77703342119733    1.92035994275123
H        -2.92604145470728    1.54728290868480    1.33752825669561
H        -2.05152440012204   -3.50825949348241   -0.27871594676816
H        -0.87863106802497   -4.80721290644023    1.51313006102006
H         0.97497241807228   -6.45496036722807    1.45272662769355
H         3.58630618914834   -3.48054356014336   -0.14463631974711
H         1.72980040588125   -1.81589317135100   -0.08214203624431
H        -4.41352303284638   -2.56699820301248   -0.86070311241628
Cl       -0.05051350810773    0.25301793295971   -0.76821535629691
