66
 energy: -105.939247210133 gnorm: 0.000557012148 xtb: 6.4.1 (afa7bdf)
Ir       -0.17599972096134   -0.90866604806062    1.46536135700087
C        -2.21025231054055    0.54934511134217    3.88728385689995
C        -0.87342881014558    0.06993440119881    3.45507631774456
C        -0.39582911047587   -1.26792432325501    3.67600791726990
C        -1.14295572147940   -2.32437933022372    4.41597424810206
C         1.00101615992190   -1.29825127841263    3.34383460137353
C         1.98122792041818   -2.33237048357047    3.77205310092514
C         1.35460890653071   -0.01849789784678    2.79849646554864
C         2.74484649421638    0.42304007738749    2.51126184939141
C         0.18383439406433    0.83439684005571    2.87769484509969
C         0.22051708828676    2.29523147059762    2.70641574966327
C        -0.14275555925939    3.11490483641637    3.77326765858941
C        -0.05147924801629    4.48610123188712    3.62679845344223
F        -0.40047339136588    5.27076619239469    4.66696468496734
C         0.38673378507352    5.08570506236973    2.45997031880192
C         0.73954098299157    4.24384125656538    1.41997900888352
F         1.17042100698420    4.79070742824016    0.26453602645891
C         0.66986759783674    2.86807779813526    1.51912384937566
H        -2.38311628405460    1.57728157520690    3.58640544140265
H        -2.26640770185333    0.48257054157926    4.97469445234958
H        -3.00427036145401   -0.07755797964037    3.48622916304062
H        -0.78580621973137   -3.31737285151930    4.15937316561915
H        -0.99819117561753   -2.17820272098158    5.48713432976933
H        -2.20776076330838   -2.26778817264025    4.21034318933486
H         2.39219916509875   -2.02086993855852    4.73410348401944
H         1.51583091577702   -3.30335631714523    3.91267639721422
H         2.80979573532584   -2.40874271099202    3.07402134515213
H         3.27344042915417   -0.30800377306115    1.90348209848960
H         2.75557156647393    1.37979086935040    1.99827381889803
H         3.28204351524796    0.52712376712391    3.45515133234182
H        -0.46775705239842    2.70389450670034    4.71472940277402
H         0.45032502853477    6.15683565168290    2.36515532947518
H         0.93009964084596    2.25633030072557    0.66969327331962
C         1.36431636630785   -4.45443302470616   -2.20283461191757
C         1.99792119620322   -3.20844141060467   -1.58496934511489
C         2.19013358086332   -3.18288309964074   -0.05781954443662
C         3.47316142457198   -3.88275365430130    0.42215066877868
C         3.56761448592044   -5.38945148833416    0.20357502760464
C         0.95525163814514   -3.69662136581253    0.71557387797712
N        -0.13803821883599   -2.76353515260782    0.61849929866817
C        -1.17461701673306   -3.10769783332462   -0.06468871726762
C        -2.19645129854429   -2.13482086557639   -0.30910515012230
N        -2.01316567318599   -0.93419592735739    0.28779874316334
C        -2.83859733462150    0.05755367419423   -0.03560546308566
Br       -2.51122325663522    1.76893671608105    0.67814533950555
C        -3.92404110731978   -0.09750984134627   -0.89125847813511
C        -4.15956156717808   -1.33334806652452   -1.47147114180377
C        -3.26952363004301   -2.35101541053741   -1.18118018043381
F        -3.40831633498002   -3.55448293216096   -1.74091320552971
H         1.80249278698857   -5.37034047380656   -1.82233370020833
H         0.29107127467066   -4.48501382939913   -2.03717832623157
H         1.52113178961454   -4.43194320679895   -3.27931873073222
H         2.98186180945018   -3.05892076581650   -2.03314504506446
H         1.39051607764281   -2.34487674940323   -1.86438620151762
H         2.30710490460279   -2.12485026948962    0.20923716621923
H         3.59058713421254   -3.68856072037293    1.49017292102843
H         4.31565007884656   -3.40725250367069   -0.08397448030156
H         2.70744739623496   -5.91048626238966    0.61472718911961
H         4.45710870822724   -5.76648021321347    0.70429603773040
H         3.66191024820678   -5.63084516700104   -0.85071930105790
H         0.65254198002895   -4.67108473465130    0.32762083726599
H         1.23170368634378   -3.79874765832450    1.76503268297408
H        -1.27664905750691   -4.09471623041125   -0.50413669169357
H        -4.56748938234471    0.74321449828667   -1.09575199668951
H        -4.98924718245686   -1.50076837287759   -2.14013421943002
Cl        0.66407759121918    0.01188324883798   -0.55972079202553
