72
 energy: -114.880840038153 gnorm: 0.000508487505 xtb: 6.4.1 (afa7bdf)
Ir       -0.71257823826406   -0.94310085851554    1.66752610075063
C        -2.06820982748088    0.76485014911775    4.39141809813808
C        -0.89898432418050    0.17075452594802    3.69143346364301
C        -0.46079422501642   -1.18858009042031    3.86648763286544
C         0.83206187725395   -1.32103897201420    3.25031916145412
C         1.78398856901092   -2.44181239222251    3.48408482923310
C         1.11917377437666   -0.09673889070771    2.57136840099423
C         0.04134681240674    0.83785606698271    2.85737980701941
C         0.11584254692636    2.28288942291294    2.59561186811784
C         0.10142152461929    3.17367302494129    3.66750970082706
C         0.24295096562241    4.53001726805829    3.45171898655493
C         0.39914519082650    5.03774117175954    2.16332341890129
C         0.57065438488139    6.48024935433943    1.93517413872494
C         1.48895555714073    6.94178092709496    0.99367300090513
C         1.66053734761525    8.29725423310683    0.78168486895213
C         0.91351020283549    9.21503260202610    1.50216385330776
C        -0.00491518287942    8.76775988324390    2.43808319475027
C        -0.17324029392770    7.41251584115532    2.65590962356394
C         0.40027946146333    4.14271542513010    1.09463168058894
C         0.26252702258132    2.78643162264520    1.30593795062569
C         2.41547091359874    0.27823538803074    1.94382579874707
C        -1.08363995584476   -2.16977120625797    4.80080455015605
H        -1.86925889201339    0.75894463885843    5.46388772022064
H        -2.97171219883701    0.18187474006405    4.22551348587546
H        -2.23951029494463    1.78705177740052    4.06966047841926
H         2.32786674979987   -2.23745037326670    4.40744502560973
H         2.50702293927657   -2.52824152165051    2.67879699962405
H         1.26905876741755   -3.39142811903655    3.59955712303450
H         0.01127582181989    2.79984125482122    4.67585267049682
H         0.25811857349249    5.20387697990682    4.29520222975929
H         2.08734358850192    6.23380000403211    0.43887999567622
H         2.38079791149544    8.64039448257418    0.05275746335437
H         1.04697299413841   10.27380109238480    1.33472187216560
H        -0.59269120024950    9.47984316601995    2.99941341966942
H        -0.90267934154292    7.07313013055125    3.37669475189829
H         0.49335046560577    4.51706830206669    0.08620231878721
H         0.24088546422871    2.11164622778988    0.46424434107625
H         2.97016825298335   -0.59936610439896    1.62518809433449
H         2.26013840539723    0.93174927061688    1.08991496739138
H         3.01307511147952    0.82258636392756    2.67589006084592
H        -2.16480202686917   -2.06453764219652    4.81548488978154
H        -0.82824014455638   -3.18988305693768    4.52790730253737
H        -0.71271736103526   -1.98686603097766    5.80994416552659
C        -6.94906616662314    0.80447033743378   -0.34691785640880
O        -5.62698414377637    0.87679210583676    0.16960777324695
C        -4.88870077131473   -0.22158342733595    0.24994708123485
C        -5.26111402711176   -1.51125632899057   -0.14171725941042
C        -4.34369139767034   -2.53393452146778   -0.01823213238761
C        -3.08311077127394   -2.27864422115128    0.52036972463289
C        -2.02606032189650   -3.23793498480699    0.55173849208486
N        -0.85985157143480   -2.84156414867744    0.95002728826751
C         0.22869412524029   -3.72232502284541    0.89870206786646
C         0.13138766135790   -5.02011494460943    1.40261642291763
C         1.21525790372860   -5.87412708194796    1.33111915964328
C         2.39129778034102   -5.43697977869592    0.73868940084705
Br        3.89350400516254   -6.62773247250267    0.62779614139437
C         2.49940268012849   -4.15022843490053    0.22903870514622
C         1.42288591563288   -3.29026383041466    0.32087436754906
N        -2.73398829854349   -1.03857390699941    0.96200252922027
C        -3.59489749511191   -0.05237339084084    0.79397943302172
Br       -3.10812026001794    1.70472453437817    1.25635070585980
H        -7.57074921971323    0.14517587890158    0.26209528389463
H        -7.33108943812756    1.82144450988395   -0.29355661880195
H        -6.94521568588994    0.46781128820727   -1.38564216012134
H        -6.23685723168191   -1.70249100863847   -0.55723637942151
H        -4.58790416278600   -3.53067601987043   -0.34750319170914
H        -2.18560614706752   -4.23873567141566    0.16629977083073
H        -0.78212122648365   -5.35028864476738    1.87266036999307
H         1.14794752866069   -6.87348341586207    1.72984830789862
H         3.41708169203252   -3.82610367345873   -0.23479710434427
H         1.48035972099568   -2.29053049786246   -0.08186183754286
Cl       -0.28817336599792   -0.24663130545161   -0.58673799031024
