82
 energy: -118.042676943896 gnorm: 0.000541047982 xtb: 6.4.1 (afa7bdf)
Ir       -0.41642761799366   -0.07682913523321    2.46442951760108
C        -2.19260504706215    2.29625310552010    4.14148495641731
C        -0.99786816780330    1.40345207228933    4.01552801752607
C        -0.84707175326727    0.12080060582522    4.64717469943745
C         0.51479893644872   -0.29406928194382    4.49763405188482
C         1.13132681451650   -1.45748513896299    5.19710965276078
C         1.21904177071820    0.74039059124942    3.78244333137077
C         0.30170309985302    1.82035742775115    3.54962627259039
C         0.62319308159817    3.16532039306889    3.07777458934020
C         1.74842367921637    3.82958554198990    3.57247470670877
C         2.01927799638106    5.12940747156304    3.19735819560895
C         1.19123951449450    5.80611897188275    2.30265384693285
C         1.47814368379865    7.19173185940963    1.90527633980800
C         1.32006612112591    7.59926977331989    0.58177017744216
C         1.58280493091891    8.90529461342256    0.21129437853279
C         1.99883551861132    9.82795049684641    1.15758978110059
C         2.15680319846155    9.43438788829461    2.47660073086773
C         1.90291148153059    8.12668214257578    2.84774552751526
C         0.07383680964746    5.13793906196513    1.80335895524213
C        -0.21422934009615    3.84704893845207    2.19298014992200
C         2.69631764509668    0.76820692744216    3.56214561844709
C        -1.86234605482750   -0.57729112052875    5.48542438489794
H        -1.86568964963842    3.31329387928944    4.35057630833372
H        -2.83543740269968    1.96078712564566    4.95092083068896
H        -2.77573119413124    2.32728213450604    3.22247876488215
H         1.18156353269720   -1.23436935651601    6.26359730495294
H         2.14101896571108   -1.64092695960960    4.84358523304464
H         0.53580449446962   -2.35919448280241    5.07633767559640
H         2.39342551129376    3.34297705527749    4.28593235292276
H         2.89517741549521    5.62461171538810    3.58921697981940
H         1.01040900212391    6.88238432142564   -0.16474060277315
H         1.46348816666574    9.20571098058555   -0.81968323169371
H         2.19964713625848   10.84902526919291    0.86829076270651
H         2.47804769719614   10.15084784276120    3.21864505675064
H         2.01145510353330    7.83302843241125    3.88168513325955
H        -0.58770544555001    5.64611800700049    1.11802892648587
H        -1.07142078743717    3.34623810013797    1.77469787743146
H         3.07402683034102   -0.22308246547477    3.32336553221173
H         2.95358460145783    1.45248898664203    2.75770303345898
H         3.19684995179193    1.09734132261059    4.47332808537447
H        -2.87573509182647   -0.33976569595467    5.17585072985417
H        -1.72583303183339   -1.65441483610812    5.44967444255197
H        -1.73865499783929   -0.25762869186690    6.52107189803821
C         6.12924376432254   -6.03699043066239    2.98948205676490
C         5.67741116771454   -4.77971983708270    2.25435964382886
C         4.17629839051423   -4.54116299370559    2.40855203257296
C         3.71367723376981   -3.29396493200923    1.65563850522117
C         2.21862855912526   -3.04912304590588    1.84689330788289
C         1.74355609934773   -1.82816902267473    1.04425307249824
N         0.34450768035799   -1.57503707867265    1.29013252431730
C        -0.52465325975657   -2.22806532132376    0.59955530355895
C        -1.91297134039830   -1.95787862110154    0.84668332534251
C        -2.96447555905440   -2.56633846934292    0.16536895165762
C        -4.26717879551998   -2.19617313207546    0.46586522534955
C        -5.39335573757874   -2.84378567210073   -0.27739567025978
O        -5.22648630511980   -3.68200421787678   -1.13155427673351
O        -6.57534656124345   -2.38463541936043    0.11087733555287
C        -7.72773030633296   -2.92693515544116   -0.53421686020063
C        -4.47647227036633   -1.22234143023257    1.44581895674428
C        -3.38157864410525   -0.66109432412349    2.07396763810828
N        -2.12830532359014   -1.01400161739352    1.79483882516808
H         7.20177275372422   -6.17994010632188    2.87811780129208
H         5.62544076250908   -6.91563589764532    2.59226818496900
H         5.90287347469529   -5.96368017213518    4.05103434601986
H         5.92362379455749   -4.87459277597425    1.19429795992951
H         6.22500111987894   -3.91862104425911    2.64414892172488
H         3.93989103043328   -4.43795597399016    3.46969572095320
H         3.63723956296453   -5.41355099728664    2.03304623512238
H         3.93250617128071   -3.41605400581289    0.59313233312680
H         4.28012771540646   -2.43000002852582    2.00875425728446
H         2.00394717544097   -2.89460784000019    2.90370378469033
H         1.66141205294239   -3.92800861419657    1.51820633404337
H         2.31152677521608   -0.94406755903749    1.33426359662965
H         1.90836440748119   -2.01223021873070   -0.02181118756684
H        -0.23569430272024   -2.93748856096166   -0.16869101624581
H        -2.77860990028826   -3.31043192835701   -0.59345174342290
H        -7.80837446686539   -3.99460582555270   -0.32327898394946
H        -7.65768663486341   -2.78414852880283   -1.61361353201438
H        -8.57851417260513   -2.38780730480972   -0.12728847047941
H        -5.47503385808596   -0.91356452422393    1.70591799372334
H        -3.51664661003483    0.10013631514340    2.82743506957575
Cl       -0.54649875261254    1.06523942186782    0.37551852133912
