69
 energy: -108.001795547489 gnorm: 0.000253687592 xtb: 6.4.1 (afa7bdf)
Ir        0.18824238335599   -0.43156141067838    1.36480155381904
C        -2.22642428233563    0.57971482010919    3.48995329571033
C        -0.81036783785609    0.20310330568424    3.25093574160003
C        -0.26434492693004   -1.10862251956706    3.48347407695761
C        -1.05002405982196   -2.29275282731383    3.93308171877150
C         1.13523295751408   -1.01839722236846    3.27835230317792
C         2.15004454714805   -2.07486534530844    3.55415137636127
C         1.47474372627300    0.39930465214909    3.05787942134469
C         2.86758212550394    0.92411732630702    3.06658779021511
C         0.28688831991553    1.14255042388331    3.09075348339517
C         0.16217481079072    2.60368209721454    3.02897470176141
C        -0.46429690788204    3.28806982105490    4.06780502448544
C        -0.54080191843638    4.66674724674524    4.01573533995686
F        -1.13927754600665    5.31940604116255    5.03219974843312
C        -0.02508482758280    5.40472673044147    2.96491273700535
C         0.58104607502017    4.69639442397118    1.94332615016110
F         1.08739508637126    5.37210855802541    0.89181418105498
C         0.68611004241059    3.31880858694732    1.95424887004134
H        -2.46884085466260    1.53558364114434    3.03029197732290
H        -2.39332560286615    0.66607438213038    4.56466619893172
H        -2.90293918230595   -0.18563252185281    3.11800323441872
H        -0.47705493906295   -3.20801990074622    3.82275369700519
H        -1.30797061079462   -2.17251755306564    4.98530006258734
H        -1.97446253249562   -2.38571180734987    3.36794742819152
H         2.50192142068168   -1.96583090613430    4.58071855646895
H         1.72170779646604   -3.06736643560255    3.44827049780513
H         3.01077363717459   -1.98338180940136    2.89680839556651
H         3.52480755689177    0.32694273387433    2.43999519768819
H         2.89903121959707    1.96145869028865    2.74833351465554
H         3.25100965996177    0.86762659280098    4.08620208090377
H        -0.86783960658176    2.76680085940030    4.91990000105582
H        -0.09703151487940    6.47897465912078    2.94179506787736
H         1.15772809357054    2.81795297398042    1.12376302367871
C        -5.41511164182595   -1.44506741329200    1.38626703031701
S        -5.23888590719554    0.33527697646597    1.07527549238664
C        -3.58971408459947    0.39557274840008    0.54046225543154
N        -2.89491691986926   -0.71705540186291    0.53330259331162
C        -1.64683850435668   -0.71774331655517    0.03851457610527
C        -0.79919058174374   -1.85609187286054    0.23167465732863
N        -0.71083758654487   -3.01822485652187   -0.12421092614607
C         0.22223115331047   -4.04653456528014    0.21675857523231
C        -0.55154598094994   -5.21981798427475    0.82483336080424
C         0.39932417302660   -6.37371643889666    1.13087267427859
C         1.12471548211009   -6.82428758578495   -0.13423666259106
C         1.88340102766315   -5.65477164335132   -0.75523987827545
C         0.93342619663973   -4.50095446809362   -1.06255973102782
C        -1.02407832522126    0.46427146726785   -0.49134926592146
C        -1.76639119907283    1.65221296980605   -0.42387696600577
C        -3.03787429855818    1.64634439249027    0.11866420965851
C        -3.80303874340228    2.82713083751616    0.19272282943456
N        -4.41679302556310    3.79501782504664    0.25638156615794
H        -5.14492896886736   -1.98736973957380    0.48733903694058
H        -4.77475841236861   -1.73171827308948    2.21260075405371
H        -6.45833814875325   -1.60336910004275    1.63835328991014
H         3.05710068213140   -0.10992382348515   -0.31514795923861
H         0.96540949020678   -3.68337057045930    0.94293247155279
H        -1.05757085974309   -4.89349292823520    1.73470803632165
H        -1.31191207359306   -5.54542516574880    0.11400214677350
H        -0.16567845873524   -7.20648879072363    1.55234441731783
H         1.13451904440619   -6.05893270003619    1.87508137039820
H         1.81835654180468   -7.63279379490381    0.10353606367398
H         0.39857900128626   -7.21035912921617   -0.85280504133024
H         2.65881361426767   -5.31756429548946   -0.06408520534860
H         2.37372381374202   -5.97523606790885   -1.67567239668025
H         1.48695543114164   -3.66711926988188   -1.49785966158942
H         0.18242580204428   -4.82038314021279   -1.78645354219771
H        -0.21602455868618    0.40710230792961   -1.21520912587190
H        -1.35864732849124    2.57303100297626   -0.81510084400447
Cl        2.07861084622294   -0.91410449915763   -0.18573164956778
