73
 energy: -111.814352146642 gnorm: 0.000282537502 xtb: 6.4.1 (afa7bdf)
Ir       -0.14160276863228   -0.18174208486905    0.90848593223037
C        -1.62416226336803    1.81991907207687    3.29565993682656
C        -0.41112729303369    1.23775664295425    2.65672538285437
C         0.28462481712192    0.06370831899452    3.12022528648697
C        -0.11642431780189   -0.74735318376525    4.30540521405294
C         1.56117695082324    0.01833967684723    2.45939489379691
C         2.73248326744580   -0.81654472324359    2.84832863836643
C         1.60569736898166    1.07745500267838    1.51235495572728
C         2.79407751538679    1.46207228884065    0.70030551305932
C         0.37908291396416    1.84429342848729    1.64061248790484
C         0.12992190644181    3.15139161020096    1.01376787405689
C         1.05149758876349    4.17925450678834    1.20098369342239
C         0.81036147949439    5.41304078889704    0.62799052120570
F         1.70778444471164    6.40266598376786    0.81955716708229
C        -0.31422857308016    5.67518703476547   -0.13378626904705
C        -1.20777632496932    4.63313955011193   -0.30459749099818
F        -2.31582450640189    4.84544208773887   -1.04497467184571
C        -1.01291674269168    3.38467747602792    0.25403108245817
H        -1.33848568267192    2.22687595988949    4.26676088097829
H        -2.39079776064531    1.06822932586364    3.47050777848914
H        -2.03082213442997    2.63126643717513    2.69744993741387
H         0.26365209389776   -1.76224062378629    4.23576867571074
H         0.29307360310870   -0.29097223498733    5.20730183634414
H        -1.19705633647829   -0.78551963953863    4.40495188780334
H         3.45678924222162   -0.17464000759936    3.35139169915287
H         2.44748002728423   -1.60581756609098    3.53629753322253
H         3.22961970387053   -1.25018907205414    1.98418384456929
H         3.31157698238421    0.58255840581234    0.32486696946266
H         2.50020099348703    2.08126652851508   -0.14309843976911
H         3.49594038100907    2.02311132933840    1.31848793994796
H         1.93961090550930    4.03424828497505    1.79355999472621
H        -0.48286607219926    6.64221266755758   -0.57710850434620
H        -1.72190612467997    2.59812613130045    0.05365754154644
C         3.25934406362998   -5.03645695530345    2.52926383857990
C         2.76166278335486   -4.47283903152783    1.20185593944284
C         1.41767134160164   -3.74129870530498    1.33898042491976
C         0.24564351804844   -4.72137544584069    1.49440396439859
C        -0.82364274773729   -4.21620193517627    2.45962083346546
C         1.24165184562178   -2.82247231525923    0.10571865426670
N         0.02338751968946   -2.05961039819373    0.15879287016916
C        -1.01627651777998   -2.49755857381370   -0.47172129379179
C        -2.22632573155319   -1.74824303068607   -0.34623797715398
C        -3.44282785240120   -2.07961506933637   -0.95097622135733
C        -4.53739243845821   -1.26908862332222   -0.76472370857854
C        -4.40747334308330   -0.12198483333359    0.03606031327499
C        -5.50420502815572    0.77441004209112    0.28394071793532
C        -6.81922928997418    0.75272921606207   -0.13329224710964
C        -7.42781342971643    1.89706659054599    0.41537864994080
C        -6.45272018556736    2.53726072492936    1.12669931098900
O        -5.29612433060789    1.87261235972070    1.05496129186459
C        -3.15573470374536    0.13848741052808    0.60692515377607
N        -2.10103080968506   -0.64055486101993    0.42953933225892
H         4.20656466529816   -5.54976325831186    2.38371648110612
H         3.41385890036186   -4.23841560627733    3.25116052214520
H         2.55350145273427   -5.74758979301006    2.94977131898866
H         3.51543066476344   -3.78259090186297    0.81809970903157
H         2.66071960263663   -5.28165464003771    0.47600207291003
H         1.45551428681456   -3.11013936181649    2.22831251357854
H        -0.20156038643747   -4.92588190169115    0.52077414432491
H         0.62282538421417   -5.67299162042656    1.87012207410108
H        -0.42395398756687   -4.17129285499191    3.46977637179799
H        -1.67383352535369   -4.89347880834778    2.46671951450652
H        -1.17287170524265   -3.22460990366335    2.18123389530848
H         2.07687463492886   -2.12106653696949    0.06018885163984
H         1.25874254131080   -3.43973480556972   -0.79796079990545
H        -0.98471545671861   -3.39253007363637   -1.08196326802444
H        -3.50357138296281   -2.96455079692834   -1.56342256772634
H        -5.48135163103783   -1.50431398774607   -1.22718676498196
H        -7.29182237034414    0.01780440018049   -0.75103714638303
H        -8.44627827296356    2.20399146043735    0.29986122397468
H        -6.46747286299685    3.44217677327799    1.70152042320100
H        -3.03919669174026    1.00968635544920    1.23315349653713
Cl        0.01305419189297    0.47529189248811   -1.37917663632745
