57
 energy: -87.523787846198 gnorm: 0.000643591193 xtb: 6.4.1 (afa7bdf)
Ir       -0.78852178751343   -0.78529286702681    1.44567158176266
C        -2.16593034017164    1.32938179401260    3.84208475805207
C        -1.01221977555454    0.55358121089700    3.30611381871469
C        -0.73190003140282   -0.81888312981496    3.66549092528384
C        -1.53180099636496   -1.62295872087276    4.63369640810615
C         0.59387229150730   -1.13635077644485    3.20419367953773
C         1.38747791952100   -2.32833632248328    3.61123361778158
C         1.05812681749711   -0.03372735950591    2.43265920503903
C         2.42198503064198    0.14924657550918    1.86189299591049
C         0.06280681031737    1.02544335724431    2.51432212070128
C         0.30295625564600    2.41543741365633    2.02796329410460
H        -2.01718591492998    1.47379003543343    4.91267705310684
H        -3.10316348878985    0.79500018222539    3.70617471869511
H        -2.24980745494019    2.30412174265143    3.37304713816680
H        -2.59268791934535   -1.40922947113082    4.53649279565725
H        -1.37004404551718   -2.68747317442111    4.48832591805428
H        -1.22660091463744   -1.37048471664440    5.64996813900732
H         0.75218650708776   -3.19133890406888    3.78933570809928
H         2.13037461746630   -2.58827650739232    2.86257473375171
H         1.90892507256402   -2.09289384115052    4.54006744189281
H         2.36662056771850    0.63016579258845    0.88779533093695
H         2.93686425571288   -0.80104228461704    1.75847430506938
H         3.00578595102030    0.79114895572518    2.52217309269103
H        -0.55745437925755    3.05566326164789    2.19963141543599
H         0.53715594688309    2.41591817847592    0.96442869745353
H         1.15822863944890    2.83630991933125    2.55633470436993
Cl       -6.48926351642930    3.56445334632194   -0.07341057873860
C        -5.40962667782865    2.22901662990085    0.14527044669115
C        -4.07754111124431    2.48244149452932    0.51785874524973
C        -3.21003973622158    1.44334835204077    0.71033549028372
C        -3.62375893215721    0.10903114962643    0.52674913240384
N        -2.75491648744889   -0.91257633668533    0.72065901526858
C        -3.12132372997646   -2.15624755304961    0.36920505867872
C        -2.06612577221949   -3.11743419237343    0.42806677822150
N        -0.90134906301614   -2.68780539153089    0.80489340674139
C         0.19853601916062   -3.55479389718017    0.81965812267992
C         1.41140790162447   -3.11812732564765    0.28635612455444
C         2.50187305907124   -3.96741773153402    0.27692495216166
C         2.40139116915743   -5.24189362522787    0.81616711268882
C         1.19980723243978   -5.67114595004363    1.35934678653552
C         0.09629731366283   -4.83852608918600    1.35781701517881
C        -4.42348454777716   -2.46648624427384   -0.07518385894610
C        -5.34919644478903   -1.46893243077348   -0.17431132451469
C        -4.96136136036130   -0.13649760538263    0.09810275107378
C        -5.84456960753556    0.94568505794081   -0.06778934980423
H        -3.75151341179266    3.50277735408242    0.63870025355676
H        -2.17601772732267    1.62921519662543    0.95040221452132
H        -2.21836880669992   -4.13748885779026    0.09560967577004
H         1.46808130221159   -2.13015424833102   -0.14418259627585
H         3.43442016330280   -3.63380005596457   -0.15055430709268
H         3.25799467681848   -5.89761095720108    0.81535417338523
H         1.12180043976259   -6.65914602992662    1.78607877921792
H        -0.83419325966224   -5.16473949481410    1.79764737189078
H        -4.66195051342093   -3.48819106157885   -0.32105634035760
H        -6.36216125283773   -1.67192807007566   -0.48453819067590
H        -6.85760046228701    0.75269791861516   -0.38308681608321
Cl       -0.20969949078628   -0.01614169493240   -0.74138064165156
