78
 energy: -114.387788156346 gnorm: 0.000561147466 xtb: 6.4.1 (afa7bdf)
Ir       -0.25060399356962   -0.68766643225621    1.58465346299451
C        -2.27195752133097    1.26643972477284    3.63508530651345
C        -0.97330125276619    0.59710681611990    3.35427709593709
C        -0.64943533682031   -0.74258530304166    3.77697179927800
C         0.76376094932144   -0.92368556495485    3.63267165845463
C         1.53094140674391   -1.99556572998673    4.32917642071560
C         1.27891559602251    0.21013232796716    2.92741451512749
C         0.19326670164707    1.17697469906619    2.79554365588027
C         0.37088365768094    2.59316028281973    2.44315700525521
C         0.06393364840988    3.56401375891236    3.39577741940787
C         0.26883230636540    4.90132919153117    3.12418767190657
C         0.78251493326189    5.31135906153301    1.89515618516113
C         1.01161194526677    6.73638079300122    1.61389324544468
C         2.15983665314601    7.15084153816077    0.94147665328321
C         2.38231286536514    8.49190501299380    0.68771481130715
C         1.45899918281644    9.44096756617848    1.09541776143638
C         0.31131763317324    9.03990458991653    1.75983200246568
C         0.09000695873063    7.69982214045951    2.01948264596497
C         1.07894358514601    4.33716772732796    0.94375601610873
C         0.87941065064775    2.99802291916597    1.21253231189622
C         2.71688135811687    0.54555071651485    2.71545156734766
C        -1.55255082391453   -1.63479417813241    4.56058336511721
H        -2.36862840463183    1.39090314256822    4.71472055024767
H        -3.11598033725592    0.66587137408918    3.30111091238107
H        -2.32000710332151    2.24430098276055    3.16553368695153
H         2.59387594508959   -1.93160960393262    4.11911582883808
H         1.16689241427718   -2.98950069634403    4.07920419845364
H         1.39091771786238   -1.85909780760568    5.40260467491190
H        -0.30867708663955    3.26662229155801    4.36411590945132
H         0.05024147782384    5.63804553247718    3.88271382902774
H         2.89328441909767    6.41917691729609    0.63479795026224
H         3.28012085858078    8.79967434676313    0.17097283336809
H         1.63281594617212   10.48829689187426    0.89583417441772
H        -0.41444514642065    9.77568130040524    2.07536418274780
H        -0.81550737481471    7.39453474390959    2.52339657872314
H         1.45306024679822    4.63482726796642   -0.02439587604742
H         1.09018703147203    2.26210323432547    0.45250507180526
H         3.32457653399786   -0.34760721649305    2.60570068980010
H         2.84000888961404    1.16571898017179    1.83190594243551
H         3.07813959986437    1.11212480060063    3.57498096333850
H        -2.58984022345771   -1.49819423770302    4.26755409594630
H        -1.28017340033303   -2.67855898070565    4.43090266319540
H        -1.46668870060193   -1.39275756756282    5.62064428164333
C        -6.50920877513514    0.23943515149805   -0.77776565955832
O        -5.18184054621055    0.51589458887813   -0.35081541711106
C        -4.37375615040860   -0.48623003287833   -0.03047098127579
C        -4.68738596408880   -1.84916058974798   -0.04398731046937
C        -3.69930256897010   -2.76935155875862    0.24790293705048
C        -2.42608690958875   -2.32837933807703    0.59873546199858
C        -1.26755714346570   -3.16793412206593    0.68144496220780
N        -0.11738885198869   -2.62040516814663    0.88630950553204
C         1.06086675036723   -3.39907348249332    0.53692800483218
C         1.08817771629133   -3.55667513726422   -0.99648296531573
C         2.29141589119636   -4.38723432299081   -1.42888100656569
C         3.58863170202523   -3.73530689456685   -0.96440024993873
C         3.56596723602863   -3.55943717539496    0.54955768348481
C         2.35660042937459   -2.73077388216512    0.98123734273498
N        -2.14577735690052   -1.00317666257819    0.70904633088729
C        -3.06400558532205   -0.12408658953486    0.35981718351200
Br       -2.62226018841891    1.71138741459650    0.30306203715113
H        -6.50888444457904   -0.37468016636625   -1.68075063191749
H        -7.07983077964967   -0.25108191176290    0.01339604856219
H        -6.94698240655291    1.21067464069715   -0.99608203007726
H        -5.67632343469888   -2.18359805688986   -0.31167833772179
H        -3.90349385461119   -3.82623168323104    0.19352031155601
H        -1.36212807923737   -4.22118696508752    0.43706164914714
H         0.97802247758414   -4.39322107212716    0.99561409079960
H         1.14606723002827   -2.56142364567360   -1.43933939234138
H         0.16674570257430   -4.02818427689138   -1.34207447575743
H         2.28770610881531   -4.47926365546893   -2.51613982064905
H         2.21652697657367   -5.39247635191508   -1.00747172628556
H         3.69697656861574   -2.76049067210197   -1.44346945366741
H         4.44121405500978   -4.35012880498201   -1.25735537840146
H         3.52761589759172   -4.54070134778417    1.02808900499120
H         4.48067491604891   -3.06438711356419    0.87821755417165
H         2.40937820264579   -1.74046102787852    0.52689333727310
H         2.36467644168980   -2.62791945531051    2.06169734430222
Cl        0.47954633073656   -0.01363598639106   -0.58437367205757
