88
 energy: -136.260858858094 gnorm: 0.000726592724 xtb: 6.4.1 (afa7bdf)
Ir       -0.24006388918155   -0.44666654650177    2.07989539388909
C        -2.35901548345244    1.48554261171799    3.95530493955682
C        -1.01624553858318    0.86692084168208    3.77567613450922
C        -0.64441457229683   -0.42284578657437    4.28176818609107
C         0.78340469130179   -0.55732395834685    4.13765910948936
C         1.63755919511056   -1.52072368516831    4.88371948403158
C         1.26486553686020    0.57204192952609    3.41939223960181
C         0.14287840710442    1.47019791955230    3.19665324123404
C         0.27776654457682    2.87108817900962    2.77165706971007
C        -0.15902557976829    3.89088029812119    3.61685819894204
C         0.01924817141974    5.21424168404238    3.26671876994222
C         0.63538416698761    5.56150768895118    2.06517593264920
C         0.84238579089624    6.97243847307525    1.70613168725362
C         2.03492280003614    7.38429852723366    1.11350812682350
C         2.23704349830217    8.71289951645973    0.78787366110808
C         1.24983361122013    9.65117375301129    1.04228423269717
C         0.05870364500970    9.25242101284592    1.62731783537894
C        -0.14236165858598    7.92542316467102    1.96035749795762
C         1.06109004747369    4.53824205573691    1.21940212749849
C         0.88911641512903    3.21319869622223    1.56587351517020
C         2.70327808856987    0.90211281519802    3.20701909279071
C        -1.51925324253119   -1.30503323272062    5.10696042041562
H        -2.48188030461955    1.75170150608560    5.00602705720267
H        -3.15503290852050    0.78926990253396    3.70039609157687
H        -2.46460988190177    2.38173673201453    3.35198928452856
H         1.86969471093112   -1.07686734079656    5.85406471270642
H         2.57662103542988   -1.69689858880315    4.36854087931468
H         1.13021299474931   -2.46358617040848    5.06707029667123
H        -0.60749472393755    3.64645988340495    4.56720810311120
H        -0.29944574983527    5.99138486072973    3.94522502096981
H         2.81686580972331    6.66235691758127    0.92678292959008
H         3.16949163661107    9.01992813128043    0.33626209224457
H         1.40777587649388   10.68882797913067    0.78687454978721
H        -0.71525712989310    9.98011845928743    1.82536773670183
H        -1.07886375842906    7.62229979012031    2.40539114413025
H         1.51961113743454    4.78396200314415    0.27339580400344
H         1.20698076170686    2.43473001930254    0.88833067431916
H         3.21213692411297    0.10698481134267    2.66542508591624
H         2.80736815647341    1.82504671841723    2.64378933082614
H         3.19087867476504    1.02387892211785    4.17488218859777
H        -2.55490903846211   -1.23976539523094    4.78491740049800
H        -1.19741521289868   -2.34138913356674    5.05258156834712
H        -1.46814055882945   -0.98808248622063    6.14941209013812
C         6.93109454525694   -5.67389263693978    6.60579471954911
O         6.32508716606585   -6.49402395018596    5.62821250110684
C         5.49097011898023   -5.92171451619159    4.71962916003709
C         5.18560120756038   -4.56560612669812    4.65443201763355
C         4.31225877395970   -4.10138881583724    3.68704631925296
C         3.73183590042257   -4.95906199281658    2.76161011255582
C         2.81113281341339   -4.46048093653835    1.72709425934707
C         2.98471425960600   -4.84707931549204    0.39826260536720
C         2.11555608310389   -4.40125689916293   -0.58179072178738
C         1.04647096279741   -3.59269107231356   -0.25004158803645
C         0.85711296448229   -3.19990204207378    1.07924321959603
N        -0.25481212736370   -2.39253432800793    1.37411338405009
C        -1.40002991120233   -2.77348429550864    0.89945261041008
C        -2.45289124081334   -1.81019385098542    0.81607212997561
C        -3.76279772874538   -2.12067850401744    0.39925614092415
C        -4.65975428485307   -1.10750147065765    0.21724435846358
C        -4.22456861374617    0.23191657232695    0.34874760574557
C        -5.06674959781077    1.32164228434041    0.06420290210172
C        -4.57946337108741    2.60315065212930    0.12350179572181
Cl       -5.60914542107753    3.94513287381238   -0.23701634675815
C        -3.23250806441793    2.84406810088726    0.44750135171719
C        -2.40479260022447    1.80192444402191    0.76224706368838
C        -2.87737848353607    0.47479674540684    0.75020953796478
N        -2.05301786711963   -0.55329965299223    1.06710996444536
C         1.75089239723192   -3.62173273783450    2.05684839344112
C         4.05471823123648   -6.31526344522899    2.82419240431193
C         4.91257802488724   -6.79110100910681    3.78997650554336
H         6.18137639659466   -5.18724843896861    7.23679631078102
H         7.57664146633312   -4.91815163718189    6.14839205381653
H         7.53567913377221   -6.34393115386130    7.21414052449972
H         5.62615985870226   -3.86430713123734    5.34479674147039
H         4.10746340569533   -3.04344898357073    3.63096724443914
H         3.81619577714680   -5.48316242951027    0.13579106752825
H         2.26789625824191   -4.68958013492737   -1.61050077509008
H         0.38044441513759   -3.22095437369390   -1.01346951995252
H        -1.53385057162927   -3.76213823752042    0.47409631300279
H        -4.03199336065078   -3.15278849995268    0.24548549013882
H        -5.68244308014528   -1.30695155099059   -0.06110765187626
H        -6.08966055490098    1.13499361837453   -0.22109318888695
H        -2.85783288146105    3.85471231335061    0.43976528626277
H        -1.36286404048947    1.98036929293114    0.97390721014176
H         1.58449232009631   -3.34807376585173    3.08316637679617
H         3.61111210967620   -7.00374459244027    2.12076794007345
H         5.15867999184422   -7.83954617017387    3.84936317036872
Cl        0.86445512230069   -0.00890967843803    0.01565406223740
