80
 energy: -124.330494412883 gnorm: 0.000549953845 xtb: 6.4.1 (afa7bdf)
Ir       -0.48594021441655   -0.68721906291094    1.94094983855669
C        -2.70908274556721    1.03230988758326    3.92876444595539
C        -1.35457766622591    0.44278813009765    3.74044894288915
C        -0.99621414891104   -0.90413190019051    4.09343532166384
C         0.43659123603398   -1.02390002943312    3.98672666397506
C         1.24192455796990   -2.12037069022549    4.59362871462276
C         0.93884289223453    0.18708243228821    3.43240752559901
C        -0.18079640552725    1.10915992141800    3.28739429023610
C        -0.04497912534126    2.55584627969938    3.04969033927158
C        -0.46938328461092    3.44655228108435    4.03537088004429
C        -0.30338044892816    4.80683108430618    3.86836419705330
C         0.28643580566391    5.31980430902548    2.71402542383856
C         0.48148783193790    6.76772637413707    2.54670005975982
C         1.66222558432619    7.26191618779924    1.99549566842984
C         1.85369523397817    8.62307224412831    1.84558487682600
C         0.86698441471300    9.51316750809398    2.23734029526303
C        -0.31206474318249    9.03297336667352    2.78398188712770
C        -0.50250801882238    7.67234219362569    2.94086386729117
C         0.69672057185322    4.42557822871261    1.72635545122579
C         0.53695029209166    3.06420252967476    1.89041729210973
C         2.37281327059778    0.57170916199713    3.31051203763245
C        -1.90011439846666   -1.87517234389556    4.77508286388850
H        -2.91034936234609    1.11400409095763    4.99749061038838
H        -3.48097341508821    0.39886165344428    3.49677909764881
H        -2.77285217462206    2.02064365218828    3.48397210164584
H         2.21451627783817   -2.21627493233577    4.12267911658211
H         0.72018644149873   -3.07186470376991    4.55343727132338
H         1.40354061185444   -1.87604013565351    5.64467404826694
H        -0.90191321033442    3.06896896978746    4.94904981056306
H        -0.61197491487684    5.48076776037685    4.65338505021986
H         2.44414944190310    6.57645621742617    1.70285971429335
H         2.77730443970514    8.99253705507828    1.42395555242793
H         1.01719458261859   10.57614697081448    2.11787832131815
H        -1.08596500041953    9.72294416395686    3.08837755631589
H        -1.43053891336696    7.30732661326069    3.35605884965850
H         1.13192923819211    4.80278686113277    0.81302239272370
H         0.84367639118083    2.38963929675857    1.10540333711256
H         2.99936403551614   -0.29254466251059    3.11131282492398
H         2.51303404517548    1.29798699935377    2.51535201127338
H         2.69829628102595    1.02669132796701    4.24716152561119
H        -2.92766926972089   -1.74755249260253    4.44697168515029
H        -1.59432157075059   -2.90078093419004    4.58885680847734
H        -1.86339412920104   -1.70218322531667    5.85130215970305
C         4.97091556971675   -2.78671206510503   -2.26487036568369
O         4.34189686569870   -3.22990112021938   -1.06301923590227
C         3.07247422964707   -3.62020398269508   -1.14471890077293
O         2.43060871921771   -3.64651637539099   -2.16629033600256
C         2.54463155349011   -4.00138048402427    0.22114162782179
C         2.15832354390467   -2.79969027341399    1.11219535573185
C         0.77952873387450   -3.44411995368620    1.35247032590687
N        -0.35826277603818   -2.57882089297087    1.19204042959122
C        -1.38864198761553   -2.98876809529836    0.53510645755454
C        -2.44148412421942   -2.04729273489417    0.28883863039570
C        -3.60858527957618   -2.37185343458072   -0.43052249497147
C        -4.52298016351581   -1.39141524265135   -0.69124041424834
C        -4.24148093265443   -0.06194215305383   -0.30307527721086
C        -5.10322147394386    1.00454897962102   -0.61808629846724
C        -4.75912803625337    2.28983729407036   -0.28449241674686
Cl       -5.80733449828740    3.60641277876793   -0.68295958092912
C        -3.53968848156298    2.56005352144397    0.36222601849182
C        -2.70190710648346    1.53620098859338    0.70648866148022
C        -3.03051702179721    0.19906781974482    0.40505033585462
N        -2.19629025450253   -0.81178491725855    0.74746440979561
C         1.08679328876647   -4.48024912363265    0.25073501500153
H         5.93252908558208   -2.37844360148869   -1.96715617205791
H         5.10473770909595   -3.62486638773231   -2.95088483373745
H         4.35916778539551   -2.02527178506065   -2.75127217631692
H         3.25766242174717   -4.67050770129962    0.70070414512084
H         2.08202927575705   -1.86713911033033    0.55844231667443
H         2.78402709551441   -2.65524836601537    1.98577242296799
H         0.71339292957942   -3.90439848477242    2.34169867450171
H        -1.45200863813947   -3.99144439957023    0.12931430983070
H        -3.76046390419972   -3.38837897203359   -0.75447816503499
H        -5.44184370140812   -1.60646731055884   -1.21382270354021
H        -6.02441282095931    0.79938422921461   -1.13949677847658
H        -3.27051489265417    3.58140457341063    0.57668023059058
H        -1.75054410648313    1.74865024797691    1.16716577215139
H         0.92698399466077   -5.52244644830523    0.51177259613457
H         0.60571436064512   -4.25539064938421   -0.69979259607084
Cl        0.57943972077677    0.09138399278504   -0.05740571829284
