72
 energy: -111.956280592337 gnorm: 0.000321855590 xtb: 6.4.1 (afa7bdf)
Ir       -0.27296473015601   -0.24925568343965    1.73949930258833
C        -1.55986028230603    1.54684532894962    4.33950888114047
C        -0.38179305457700    0.90109847097118    3.69524254019481
C         0.05632826146883   -0.44597253490663    3.92870585642883
C         1.33963920265507   -0.61331000787728    3.28937563553803
C         2.25548108367722   -1.76606730845632    3.51908324970441
C         1.62980786425531    0.57401651945952    2.56781602470180
C         0.55072693646678    1.52395091432556    2.81497319837176
C         0.62165393390615    2.96309812157612    2.51329307703413
C         0.63393272266059    3.87180460779521    3.57104041932862
C         0.76590647295723    5.22458128108024    3.33034259012227
C         0.88735218496355    5.71107554073161    2.02977306238531
C         1.05493294229190    7.15052721899588    1.77890951013546
C         1.95914336977837    7.59890460726528    0.81780062346127
C         2.13247269401751    8.95170779454908    0.59030173395149
C         1.40051351510464    9.87939041902945    1.31359931954278
C         0.49488646746612    9.44496553051802    2.26781716245142
C         0.32547241338995    8.09253995496864    2.50167692533027
C         0.85993444068884    4.79900836252985    0.97586055664826
C         0.73002274244833    3.44492781573322    1.21193183097772
C         2.90892392037706    0.92063156884851    1.88735903942717
C        -0.54767337223973   -1.38502472606256    4.91659842719410
H        -1.34046263208525    1.70800573358631    5.39537798507802
H        -2.44280129129378    0.91402110698962    4.28171017174943
H        -1.77128350358779    2.51013445646919    3.88304733063003
H         2.77761671444952   -1.61132487887341    4.46403954730707
H         2.99658708280208   -1.85049077734998    2.73012353208717
H         1.70875596411249   -2.70327112096711    3.58585735102471
H         0.57119702515401    3.51316511014504    4.58708987727036
H         0.80227876863881    5.91254271297843    4.16179790049886
H         2.54610696095336    6.88299358133346    0.26093969683219
H         2.84305138085861    9.28501456428410   -0.15250378582847
H         1.53602512974615   10.93600493884010    1.13457031973022
H        -0.08122129410979   10.16482415547757    2.83133869502790
H        -0.39257513881286    7.76360297026715    3.23875456095948
H         0.92745075988783    5.15741262798040   -0.04043335375344
H         0.68855977915866    2.75539900972539    0.38310685036413
H         3.50292224887921    0.03400114465754    1.68611653184470
H         2.72135011764868    1.44151108144004    0.95170587855272
H         3.48325943196562    1.58831961025406    2.53033782532416
H        -1.62732013464559   -1.27106417884182    4.95752785145032
H        -0.30681095238642   -2.41653861776221    4.67581513754453
H        -0.14670434257491   -1.16749490319747    5.90739832656874
C        -7.07034370995121    0.44350260698954   -0.12072463664481
O        -6.12528731464166   -0.61575023467757   -0.19666161609542
C        -4.89318892049519   -0.43138641238197    0.25806488490446
C        -4.39502169918218    0.75399298293127    0.82294180263908
C        -3.09107759157695    0.79660317427904    1.26887798883401
N        -2.26453410517551   -0.24339078354104    1.20719916752722
C        -2.71672534365792   -1.39051218290587    0.63613079782388
C        -1.71666382941740   -2.41750895113067    0.54507271147696
N        -0.53809608039205   -2.12480396294764    0.98927553510267
C         0.49843497042135   -3.06543735758712    0.90724875019783
C         1.73290754289721   -2.67211056576869    0.38944844847751
C         2.76053197568907   -3.58789619766127    0.27771477412941
C         2.54790656402876   -4.88734361092361    0.70970527295558
F         3.55233040385233   -5.78141292640105    0.61189878387707
C         1.33672848792084   -5.29555254960722    1.24342752731287
C         0.30507383555625   -4.38036696109297    1.33317714230170
C        -4.01042039410006   -1.51693391948954    0.16091586362749
H        -7.24509178738122    0.73734245271893    0.91627549336358
H        -6.74284553151355    1.30489935140078   -0.70625900010162
H        -7.98738683331560    0.04213671837598   -0.54580727545815
H        -5.00580959832911    1.63605419238459    0.91411599919529
H        -2.69271908426024    1.70606500001799    1.69332227011733
H        -1.93368034050448   -3.36952641321080    0.07465270506048
H         1.85828319852961   -1.65746309830316    0.04381482698765
H         3.71591849420596   -3.31144684533506   -0.13846110418370
H         1.21249322505615   -6.31391929601614    1.57465022712832
H        -0.64230037223003   -4.67647647184568    1.75616689917144
H        -4.34753842965809   -2.43534179925161   -0.29031992783480
Cl        0.09472346356738    0.39948693690768   -0.53476150884494
