70
 energy: -106.800567454354 gnorm: 0.000826153163 xtb: 6.4.1 (afa7bdf)
Ir       -0.46109759058552   -0.82476051433099    1.29044446581303
C        -1.86759406228394    1.12999757219399    3.74499834678823
C        -0.67561180657348    0.46406942727624    3.14901571777165
C        -0.27583670627246   -0.87485536882884    3.51101774665244
C        -0.95977959079186   -1.72555462005472    4.52463514186596
C         1.03383236588428   -1.11363443380581    2.96676813626511
C         1.90658155954478   -2.26823051204039    3.31581711694736
C         1.38873759620594    0.01726361991429    2.17771537309628
C         2.71160771654845    0.25859744362889    1.53507338328845
C         0.32291810999329    1.00913407914047    2.29161763855827
C         0.47575711026444    2.42350814941804    1.80152084608528
C        -0.68577175584685    2.94188705737375    0.94597940866320
C        -0.35504622910246    4.33804287746919    0.42515332501720
C        -0.09397235959984    5.29474679257636    1.58614964701682
C         1.03859310379074    4.77305409386563    2.46688358903768
C         0.71946748214649    3.37356427582549    2.98586706858624
H        -2.73962824472474    0.47990229215962    3.71694897579478
H        -2.10463566588096    2.06633478011963    3.25347515973833
H        -1.65157282462580    1.34051510521366    4.79344398605931
H        -0.71604345044178   -2.77487869014095    4.38660714143813
H        -0.62648635119645   -1.42950890263462    5.52009372742256
H        -2.03823163739119   -1.60339498590216    4.48176169905454
H         1.32417304173703   -3.17083317541031    3.47814367524128
H         2.64264340002157   -2.46228383697372    2.54129205924513
H         2.43464538626495   -2.03266106217357    4.24051250020879
H         3.29382026167639   -0.65617269287233    1.48478132244255
H         2.58741689254932    0.64917703588374    0.52714692741591
H         3.26826965238084    0.99227219005043    2.11817282519051
H         1.36610158115564    2.45229007555329    1.16661933017470
H        -1.60412290495851    3.00273057432178    1.52998747525115
H        -0.84704110270373    2.26162883584998    0.10847865179354
H        -1.18192526821785    4.70978990360819   -0.18324285686325
H         0.52958712996216    4.29088428263708   -0.21370410835963
H        -1.00249527948614    5.39905632636174    2.18407008205906
H         0.16233475667592    6.28348640200978    1.20055845700853
H         1.19489330021405    5.44884633215160    3.31004850531274
H         1.96351463006953    4.74711694112727    1.88613765395629
H        -0.16714302218456    3.41763344080646    3.61831865750032
H         1.54869876723106    3.00481874931992    3.59208196857469
C         4.94531520929475   -6.07882374423546    2.05618442254829
S         4.05493850509432   -6.46646823969676    0.52707825424984
O         3.54232247959558   -7.81350145575053    0.61141061830159
O         4.89664007193813   -6.14454183292696   -0.60065652887676
C         2.65729244794752   -5.32866213928280    0.53838751712728
C         2.82270914123307   -4.04663209844049    0.04438034655445
C         1.75461153691680   -3.16797001234979    0.05713164220076
C         0.51842739200435   -3.59327155986038    0.54601404139022
N        -0.56499028925245   -2.70164236919865    0.53183190825643
C        -1.67627853480047   -3.04690967468549   -0.04066674160794
C        -2.72797325456946   -2.07842931480557   -0.04232821326465
C        -3.95436822524722   -2.23807315183367   -0.69448852103046
C        -4.87399651868500   -1.21096728101583   -0.67014069820395
C        -4.53149916845594   -0.04056483167680    0.00752586482495
Br       -5.73735842962607    1.42610711771485    0.09282791881066
C        -3.29868712727624    0.05963152366370    0.63759993760614
N        -2.41954065784708   -0.93371236535714    0.62181368997794
C         0.36008396244543   -4.89128297683292    1.03484900922759
C         1.44042418706355   -5.75565486506902    1.03731528683387
H         4.27602012813288   -6.25904631629023    2.88689178742800
H         5.26284199986282   -5.04566120340125    2.00892000010122
H         5.80394326659579   -6.73709453387487    2.10996269065224
H         3.77916829464410   -3.76118403687592   -0.36323688515079
H         1.84705874720542   -2.16919267916242   -0.34154479559900
H        -1.78936632661710   -4.00278260281714   -0.53849891650063
H        -4.16424181235332   -3.15633560305176   -1.21899258514671
H        -5.82903262925252   -1.30154141499333   -1.16317574487906
H        -3.02085093282720    0.96361545183665    1.15808352991321
H        -0.59554296789378   -5.20794159236352    1.42271469608999
H         1.35295934313717   -6.76769662978662    1.39921837476299
Cl        0.01671617009709   -0.13072642820464   -0.94457667370574
