73
 energy: -114.140191434599 gnorm: 0.000799233174 xtb: 6.4.1 (afa7bdf)
Ir       -0.91520393121531   -0.90571398240280    1.28855916643603
C        -2.13144759101962    1.43520011702161    3.59812301624047
C        -1.06728822751320    0.51721104011827    3.09732286021485
C        -0.99976962445530   -0.86953493282817    3.51012537753534
C        -1.96201663374122   -1.51856284070383    4.44564454387070
C         0.28514169659598   -1.38271720774067    3.14061003079296
C         0.86741543440727   -2.66695885453187    3.61647818327083
C         0.94369902642562   -0.38014737848796    2.36588136403172
C         2.35913156989910   -0.43523087366577    1.89572216577322
C         0.12240913925097    0.82402694838422    2.38397902057379
C         0.66303018174725    2.16554903995388    1.97098095876601
C        -0.22085465678904    2.98860721046079    1.02808762032341
C         0.50318601999559    4.27425484340047    0.63673682940441
C         0.84355672995060    5.09632463211961    1.87738794755116
C         1.70307489949210    4.27924403745784    2.83816238308809
C         0.99247997493353    2.98680887411941    3.23077317821807
H        -3.12299688235252    1.02074046579125    3.42866262401413
H        -2.07979032033376    2.41410045512795    3.13695006103785
H        -2.00060719867200    1.55149859655271    4.67475678550607
H        -1.91228590810456   -2.60119652903885    4.37454157222394
H        -1.71020019376008   -1.23504364264810    5.46830796299200
H        -2.98042187642741   -1.19644066360676    4.24763450755922
H         0.10648927830890   -3.43353955200544    3.73434066171046
H         1.64001949985911   -3.03474886379987    2.94739307889195
H         1.32148915964714   -2.49297499445216    4.59294578376530
H         2.71884601734722   -1.45938103251422    1.86013851386008
H         2.45732063120975    0.00241712490027    0.90507317937143
H         2.99182908787336    0.12754907102682    2.58222083621099
H         1.60180331130964    1.98729400172488    1.43857989037683
H        -1.16148955743214    3.25658778248672    1.51001373091759
H        -0.43664884170928    2.40238586674449    0.13359048882911
H        -0.12571575646948    4.85943797907247   -0.03725131581733
H         1.42215777544097    4.02871360854942    0.09945062487868
H        -0.07870759388098    5.39789391478257    2.37994354181612
H         1.37413517618595    6.00513011873338    1.58697516244951
H         1.91834376375415    4.86422369237624    3.73472746312585
H         2.65609042738868    4.04403145968077    2.35858392765273
H         0.07466700237829    3.22885896148265    3.76677733619488
H         1.62813735852925    2.40190844025974    3.89816903632434
F         4.53228188447318   -5.74661262168687   -0.61699479739924
C         3.71428787125497   -6.03435169261027    0.40722141953221
F         4.45209110908199   -5.87327871343692    1.52888274665549
F         3.44757884784252   -7.34847300880172    0.32725423929053
C         2.47414213479036   -5.18611258096249    0.42950476667958
C         2.50302577424944   -3.90257340411495   -0.10603584621676
C         1.37133782126241   -3.11229546659541   -0.04852259741407
C         0.20537745527182   -3.60640948557153    0.53460582252168
N        -0.93723069378294   -2.79572718659310    0.57711451791371
C        -2.08036383931245   -3.27483967428434    0.19873792105127
C        -3.19574147358054   -2.38117800591815    0.20206823224845
C        -4.48797969820605   -2.77208451230815   -0.20270912659694
C        -5.48654308613921   -1.84040608286415   -0.23046647977935
C        -5.18269887717230   -0.49442485826163    0.06570809252987
C        -6.13990416546961    0.53478461014524   -0.02686516371042
C        -5.78869497111121    1.83827490100374    0.20210596293722
C        -4.46105873249273    2.16475037442663    0.52335035721712
C        -3.51354042037276    1.18565523411725    0.65285675034520
C        -3.84677166761996   -0.16549692592779    0.44656896210711
N        -2.90137191917682   -1.12701946302198    0.57879220932404
C         0.18304174432949   -4.89557333666736    1.06955819472708
C         1.31826736988343   -5.68141230043221    1.02280102211309
H         3.40414345424301   -3.53007718842172   -0.56765840844410
H         1.36739798124090   -2.12172798974130   -0.47562915272043
H        -2.17800045511713   -4.28618505576111   -0.17890989077566
H        -4.66344677519206   -3.80049449963929   -0.47268314609201
H        -6.49578517956735   -2.10882416784937   -0.50202562757394
H        -7.15065948459928    0.27465525786687   -0.30122353510055
H        -6.52423156131681    2.62298919411619    0.11961679286741
H        -4.19039716932336    3.19970658105294    0.66170013348978
H        -2.48341856855826    1.42470041956877    0.86081394297652
H        -0.71215678487644   -5.27171478607149    1.53928515251053
H         1.30982163707683   -6.67711162076998    1.43790388490223
Cl       -0.36919193001702   -0.15919887807519   -0.90757445213110
