87
 energy: -144.690991785325 gnorm: 0.000832871657 xtb: 6.4.1 (afa7bdf)
Ir       -0.75448222249246   -0.44546249504251    1.25413699139387
C        -2.10848651644432    1.21977780747438    3.91761371966941
C        -0.92275765956699    0.60038965323951    3.26713679249620
C        -0.53877536384701   -0.76735012860889    3.44266474218564
C         0.75758932695017   -0.94616689251810    2.83605994582010
C         1.64797350364769   -2.12573948131772    3.01835721504266
C         1.13362515114989    0.28248550134234    2.22450706393245
C         0.08033399123709    1.25391572682647    2.47508960388238
C         0.26198958054910    2.69500111409250    2.27754358910802
C         0.04178280500101    3.58081877812607    3.33264524879417
C         0.35309721302696    4.91821602147262    3.20220540439719
C         0.89732613198845    5.41823034820825    2.02000578910669
C         1.29231284531578    6.82928094766280    1.91474364224927
C         2.44417194733310    7.19066887727826    1.21634865144776
C         2.83062728018009    8.51537314295105    1.12932297196578
C         2.07232689578798    9.50413736747004    1.73560689559045
C         0.92475645524581    9.15763968405725    2.43093592948843
C         0.53843707910214    7.83243279872852    2.52316722028572
C         1.08709627414750    4.53546196839761    0.95768449597575
C         0.77504578635633    3.19699638715387    1.08168318495291
C         2.46929558759445    0.57671667041243    1.63448823230961
C        -1.22707978107827   -1.74345501184070    4.33448172742890
H        -1.91046846343317    1.31639009669686    4.98610501749179
H        -2.99043261608576    0.59255980622641    3.80644415262420
H        -2.30996709061696    2.20335017563113    3.50599359338150
H         2.26830245031562   -1.95796726548966    3.89982438758264
H         2.30317536983904   -2.26251846125538    2.16274156641599
H         1.08000172114004   -3.03797533363475    3.17583075752766
H        -0.32120060603233    3.21575647037211    4.27963280694628
H         0.20988985539288    5.57945493005174    4.04338906386539
H         3.05418432920151    6.42650893462951    0.75784655886099
H         3.72844686955568    8.77891169949033    0.58935908002604
H         2.37357779048426   10.53904623018497    1.66711421435138
H         0.32450578473585    9.92354566124031    2.89997027226994
H        -0.37585166268446    7.57977601060638    3.03899729909940
H         1.47451511639206    4.90590250656379    0.02078621238517
H         0.91679163499077    2.53186104532872    0.24433562794177
H         2.47970108993742    0.37854047590719    0.56257353150066
H         2.71508700949514    1.62699895756009    1.77883932773680
H         3.23159258282596   -0.04167042633133    2.10325694431099
H        -2.30593458576246   -1.61835696636141    4.29677738524696
H        -0.97628924432624   -2.76630942193549    4.06761374481222
H        -0.90496298925921   -1.57390001362285    5.36261645871550
C        -0.97031474635550    7.93647451444745   -0.75864636027818
O        -1.27646013249611    6.56088261673603   -0.55813905924912
C        -2.00933855589332    6.25043693869596    0.51265038068678
O        -2.40472007200658    7.06617097404045    1.31575429885323
C        -2.32235072866931    4.80029420137935    0.58137064256860
C        -1.76833747675124    3.88823014598623   -0.31118652913377
C        -2.12585847123899    2.55490837745838   -0.25236691189789
C        -3.06372397177545    2.12012833589186    0.68124953393548
C        -3.58786044716679    0.74817372889878    0.57924287188885
C        -4.96231447807264    0.60562522151810    0.36290249634552
C        -5.50136726417004   -0.63396314252191    0.06894325229659
C        -4.64308027251360   -1.71664827941849   -0.02091258589779
C        -3.29374769083042   -1.52715307501805    0.26315384642309
C        -2.34193548811866   -2.59869587377124    0.21905652716449
N        -1.13021704996458   -2.34571497086026    0.58464496075272
C        -0.17253783773796   -3.36970711930842    0.56287543323835
C        -0.44556069751418   -4.59691601260343    1.16894441456678
C         0.49967668736492   -5.60535339702567    1.14952442509305
C         1.71707289519774   -5.39137233102286    0.51502091436277
C         2.75354606736860   -6.47765051721280    0.45479372922648
F         2.49138228229727   -7.51023617870681    1.26983366369799
F         3.98023378815626   -6.03315038715364    0.78849208453690
F         2.87417460836994   -6.99711825367992   -0.78493619186956
C         1.99484656133996   -4.17094692801801   -0.09358704031189
C         1.05705000102457   -3.15782131573179   -0.05961236094554
N        -2.77353846202634   -0.31435975036084    0.59193260368113
C        -3.62638427402996    3.03808193065865    1.56984528847724
C        -3.23745875335205    4.36153566808305    1.53636291731149
H        -0.29093552544909    8.28845865026473    0.01956959254419
H        -1.88262667954688    8.53485462150956   -0.72884586039002
H        -0.49934327175329    7.99936066844021   -1.73550542249182
H        -1.07572847960365    4.23139275479337   -1.06134869468698
H        -1.71141430095821    1.85642445315150   -0.96035020278592
H        -5.58257995310176    1.48683083929048    0.39684130231743
H        -6.55880447189263   -0.74748310680170   -0.10968372879531
H        -4.99940056401081   -2.69687485925493   -0.29286389121888
H        -2.63488985772063   -3.57533549636822   -0.15090034482410
H        -1.38719919394122   -4.75285559424077    1.67210775566150
H         0.29444947005909   -6.55256259460355    1.62333783623497
H         2.94340607012218   -4.01889008325215   -0.58482121957177
H         1.25242585258927   -2.21003135088673   -0.53614344907228
H        -4.36886548030408    2.71494460830482    2.28363786348653
H        -3.65529013767251    5.08200378609170    2.22266498456368
Cl        0.01195284545962    0.00556368484125   -0.95196382716941
