74
 energy: -117.232243325312 gnorm: 0.000737339874 xtb: 6.4.1 (afa7bdf)
Ir       -0.80925031738987   -0.70119423524349    1.39170373891353
C        -2.21284608117170    1.16357502358512    3.93049521903087
C        -1.01359020900901    0.49761540390203    3.35019202560147
C        -0.63449649154293   -0.86578483179992    3.60864373158459
C        -1.33728308933715   -1.77853486675040    4.55611484735479
C         0.68276240481371   -1.06932125474654    3.06642076565633
C         1.57573419405658   -2.22130015039033    3.36857664094819
C         1.04888363980607    0.10120515980936    2.34800405591412
C         2.39807860314879    0.37919160401916    1.78033776172083
C        -0.00802937966345    1.08752593226189    2.53640444448156
C         0.12454266476655    2.51724094657711    2.21347291133382
C         0.05677013069091    3.45380136280829    3.24420479901906
C         0.23172626967987    4.79200834285186    2.94865869843628
F         0.17029584083147    5.69030538432906    3.95403263055478
C         0.46691166710936    5.24819103913788    1.66401415258025
C         0.52307480225721    4.29428926864304    0.66239005695924
F         0.74317927112117    4.70448319013575   -0.60384831924176
C         0.35874796043185    2.94468918626854    0.90775152677265
H        -2.36475440447329    2.14898294641864    3.50077642700207
H        -2.07226014862178    1.26624377046947    5.00686889534910
H        -3.10904271023540    0.56736552431049    3.77347492948493
H        -1.10039786218227   -2.81777105359761    4.34710755325474
H        -1.01564045775124   -1.55604631364683    5.57418592865145
H        -2.41398106541418   -1.64158122159487    4.50469460723392
H         2.10483078635684   -2.01127234728392    4.29910436813404
H         1.01390819234344   -3.14194118627791    3.49940160190883
H         2.31338413963380   -2.36658678430443    2.58497795674304
H         2.79580436996632   -0.49549791176993    1.27218347819778
H         2.36584244659871    1.20821763811301    1.07979683205928
H         3.07846792673572    0.63765709298532    2.59252166282535
H        -0.10200427757745    3.15156537334323    4.26625908728601
H         0.60150873415308    6.29582600280403    1.45306204543836
H         0.38681981412988    2.24125864813435    0.08904022489146
C        -7.20325419771486    5.63030076067884    0.20206853130162
C        -5.95658270364060    4.78098148450086    0.39349118154542
O        -6.33559923883537    3.41760388593325    0.23103324378892
C        -5.43107257299056    2.44041689702009    0.36271370471759
C        -4.06336931346325    2.64331366050736    0.66387299125066
C        -3.21137474837095    1.58362069552583    0.80074378635243
C        -3.65551940692939    0.25872848590627    0.63111021894762
N        -2.80298959027068   -0.78163341140969    0.76421465195242
C        -3.21842148575284   -2.01793164909776    0.44580987174836
C        -2.18451590076470   -3.00312203070104    0.44987353598167
N        -0.99070326075976   -2.60247272337141    0.75980000088678
C         0.08908983016990   -3.48930939535080    0.73081814049005
C         1.29710548385583   -3.07683202086358    0.16674292269336
C         2.36503866637597   -3.94965399418870    0.11018995399186
C         2.27225865279427   -5.23625167241870    0.63547050043680
C         3.43892467231688   -6.16789001448682    0.61102436934066
C         1.06543362542879   -5.63192237541629    1.21024255801677
C        -0.01895994468283   -4.78097351968271    1.25267874363590
C        -4.55381811313502   -2.29664913508421    0.08374903985076
C        -5.45732910665099   -1.27712766366883    0.03292196831027
C        -5.02614975020854    0.04854165643241    0.27982890238246
C        -5.88512894983926    1.14402117234002    0.17204483449430
H        -7.62366802145171    5.45932915120030   -0.78474832287930
H        -7.95032935132613    5.37342431856473    0.94774651892173
H        -6.94755387859312    6.68093268821999    0.30195695681005
H        -5.54385465087097    4.93505169454413    1.39805036043639
H        -5.19800044098795    5.04643898781511   -0.35334128458283
H        -3.67796794660461    3.64319069410454    0.77926345717798
H        -2.16496233071504    1.75849471337342    0.99271416197847
H        -2.37926106159977   -4.02013430918107    0.13115477635571
H         1.36573007685038   -2.08696625051511   -0.25796703891944
H         3.28738769932287   -3.62808145279471   -0.34908853411891
H         3.88351002912459   -6.23083206489807    1.60435188526320
H         3.12570386845017   -7.17029481270050    0.32720646090090
H         4.20145062925916   -5.82450396106814   -0.08265744673079
H         0.97906055214631   -6.62292241003354    1.62991664268940
H        -0.94062444179203   -5.09785549671524    1.71645013731025
H        -4.83179884854458   -3.31300136246423   -0.14119515062025
H        -6.49142351450405   -1.45555627501418   -0.21698108738200
H        -6.92138035660468    0.98996383737897   -0.08227493125221
Cl       -0.33351402277421   -0.03761146641700   -0.84918649956229
