78
 energy: -130.019481501032 gnorm: 0.000764347788 xtb: 6.4.1 (afa7bdf)
Ir       -0.38946386839334   -0.47536544582773    1.54214224140575
C        -1.84334324057607    1.12884184836375    4.19053021281017
C        -0.62304378617655    0.55691350570307    3.55777263930555
C        -0.18026514688292   -0.79986142585484    3.72446591822226
C         1.13711011944860   -0.90949556440100    3.15062072658383
C         2.08604932807971   -2.03435170930507    3.36542151675294
C         1.45419870068023    0.32833232316611    2.52708195637483
C         0.35634587997896    1.25062150947304    2.77954920120035
C         0.42461758622865    2.70181503043623    2.55138962852881
C         0.27881544459803    3.57629425406746    3.62831344385886
C         0.41035247309628    4.93822818602345    3.44562919437315
C         0.69030507053108    5.47015505954435    2.18764588868491
C         0.85923941643664    6.91906087713130    2.00234255819469
C         1.87382430358801    7.41046581805560    1.18274972655844
C         2.04552678961572    8.77211120303578    1.01505460167999
C         1.20160843198708    9.66486621809713    1.65574057190525
C         0.18742007896373    9.18725154933755    2.46984024158995
C         0.01961901615176    7.82592530754775    2.64597625410739
C         0.82063718358002    4.59296455943496    1.11171721071713
C         0.69132981294602    3.23039003656564    1.28876292006825
C         2.78042990428887    0.68113800827055    1.95157876932231
C        -0.82902952740444   -1.81314789509944    4.60326417621258
H        -1.68766906235591    1.17753311514898    5.26896703145046
H        -2.71251811880410    0.49856395126808    4.01463735590618
H        -2.04941473911459    2.12848343028305    3.82077793269271
H         2.59000814019356   -1.87617314712551    4.31996981310795
H         2.84316380326627   -2.06733229974658    2.58800733451381
H         1.57799695969972   -2.99388586366243    3.41263746469411
H         0.09861307769287    3.18550996761993    4.61748297315671
H         0.32313542218987    5.59851119674856    4.29518105673407
H         2.54661645511567    6.72171759467739    0.69294593151777
H         2.84148128840151    9.14036086893378    0.38409474807464
H         1.33485960580923   10.72832670524166    1.52168753620176
H        -0.47468322960214    9.88009857181127    2.96870846465607
H        -0.78173571082028    7.46299502821212    3.27281699743992
H         1.01289643836396    4.98471870782745    0.12428626613326
H         0.77572462948378    2.57015133910481    0.43895147240236
H         3.10027888767131   -0.05793005329421    1.21972200298008
H         2.75161832649127    1.65649946262796    1.47578400860242
H         3.51899624090123    0.70474597262029    2.75337351252140
H        -1.91105835840803   -1.71549018619674    4.58567537951136
H        -0.55600816680383   -2.82241275564704    4.30697368597556
H        -0.49242941511419   -1.66203453082053    5.62953719305349
O         2.13432228122828   -1.93459828518137   -0.22627711208191
C         1.74365393523612   -3.07805527263771    0.31877525747403
C         2.70727961429484   -4.09204875169093    0.41869011663801
C         2.41876779990854   -5.31900769218773    0.96726985231060
C         1.13003038110934   -5.57165308005892    1.43631478198186
C         0.80344178678618   -6.88505896549673    2.08183494822220
F        -0.48433515498174   -7.23915394920310    1.92174301842795
F         1.00903048769850   -6.85935343051448    3.41869722790698
F         1.54066877236422   -7.90241070004668    1.61294294631848
C         0.15482097281743   -4.59446375539135    1.35142307558413
C         0.44209961062799   -3.34470902286909    0.80001676169379
N        -0.56926858256631   -2.37472930037859    0.76807062944460
C        -1.75288263120220   -2.70468745061042    0.36075597227146
C        -2.77224361337226   -1.70063209031940    0.38293175795358
C        -4.07840710594721   -1.94568520894571   -0.08379491004199
C        -4.98807845703278   -0.92601701700827   -0.07866758009989
C        -4.58097036214961    0.36163330177317    0.32861288293654
C        -5.44945342835102    1.47057358078908    0.29491258542360
C        -5.00355342306332    2.71815060544728    0.63882048581185
C        -3.66441493635857    2.90602597288418    1.01760607184597
C        -2.80124921635244    1.84626397249562    1.08809475362338
C        -3.23400229375546    0.54551137071887    0.76722932935195
N        -2.38059172424118   -0.50461093917983    0.84515967394346
H         1.41509832088202   -1.28788743979910   -0.43087622114765
H         3.69433292704401   -3.87642629175196    0.04370627073007
H         3.17727788248274   -6.08245029937426    1.03312090118820
H        -0.83306255655440   -4.78491309000681    1.74351013046924
H        -1.96293658003266   -3.68959932646930   -0.04138159913311
H        -4.33530856972506   -2.93352165359005   -0.42905850653177
H        -6.00534754201929   -1.08257048467686   -0.40300948472380
H        -6.46842522536098    1.31605761397538   -0.02485780754570
H        -5.67108133453141    3.56462119222082    0.60400593672460
H        -3.31202602452500    3.89845547070676    1.25072177956231
H        -1.76615398873561    2.00184848205863    1.34499473099319
Cl        0.07396453331455    0.22480760500821   -0.71357441730772
