59
 energy: -92.577546704956 gnorm: 0.000560009351 xtb: 6.4.1 (afa7bdf)
Ir       -0.80495142894198   -1.13463850893419    1.18487607494307
C        -2.07646032761189    1.28974055107297    3.24617535456173
C        -0.93249215794346    0.44718456921304    2.79322736447475
C        -0.57326562980187   -0.82943605358269    3.37017841551682
C        -1.26605979426930   -1.47173150685684    4.52387781207004
C         0.72264619498568   -1.19441881868385    2.86233652312639
C         1.55998542745060   -2.31449500119167    3.37444781620955
C         1.10025154749983   -0.22607026305148    1.89063688437594
C         2.41954281506511   -0.10287501381637    1.20748886526800
C         0.07819773141095    0.80786915833494    1.86526269535406
C         0.22114186701745    2.09649613895882    1.13017018794151
H        -1.78083838650774    1.82168096738405    4.15133805132471
H        -2.94564322640906    0.68234050722733    3.48527481771835
H        -2.34757870038564    2.02944543535574    2.49763674098926
H        -2.34293493981370   -1.34461890427560    4.45674559280050
H        -1.03849323896373   -2.53237959483088    4.57756818826786
H        -0.92828062555901   -1.00451108379185    5.44969454800978
H         0.95437497552297   -3.17912090503746    3.63217731235016
H         2.30706231372298   -2.61632937000620    2.64602547432982
H         2.07659313431695   -1.98094299033831    4.27522376638109
H         2.29002441815346    0.23771636719455    0.18263435160712
H         2.95506192190186   -1.04786592297256    1.19866157064222
H         3.03008306690781    0.63373873554357    1.73120915602071
H        -0.66706767630354    2.71319881432437    1.22770543240508
H         0.40432861392657    1.91426099234094    0.07279909681634
H         1.07477009012318    2.64503052616187    1.52841583825851
C         2.45273720783939   -7.93636098458833    2.12693350704452
O         1.32899361804254   -7.07825780430398    2.03205607966355
C         1.44501806756880   -5.91705797300247    1.36401422546125
C         2.60511133845026   -5.47152238818670    0.73146198931865
C         2.58002253881487   -4.24424506787371    0.09093845887978
F         3.71047668185564   -3.81937628030627   -0.51367741278552
C         1.46795389464179   -3.42977352256861    0.05790361200408
C         0.30929358201580   -3.89240473449249    0.68200720934702
N        -0.83959250424310   -3.08706798971955    0.65715794359297
C        -1.96925400251017   -3.58319598671506    0.26959477930496
C        -3.09419409230898   -2.69126884438095    0.25783452981034
C        -4.35205357478924   -3.03253149039415   -0.20903322623379
C        -5.37039576957832   -2.06936349013731   -0.22621189227218
O        -6.55759425633141   -2.45657283197635   -0.67581065369867
C        -7.62985690539422   -1.52494827906372   -0.72439637929448
C        -5.04343767916680   -0.78198651322268    0.22893381300476
C        -3.76398815347786   -0.52623163753905    0.67513151789955
N        -2.80394201075521   -1.44516115314999    0.71559035298040
C         0.29466108989830   -5.12132265562843    1.32505880383009
H         2.77706532487428   -8.27614318877743    1.14005858451033
H         2.11573675932164   -8.78964473699693    2.71166616696667
H         3.28242792226084   -7.44539562471140    2.64201804885859
H         3.51620559945738   -6.04547013405244    0.72027936829197
H         1.47744584762862   -2.48842792660125   -0.46587769028618
H        -2.05740313045938   -4.60616197628396   -0.07669010777158
H        -4.55575874532899   -4.02646748290528   -0.57062288315663
H        -7.87107053274619   -1.15296916264428    0.27346302633277
H        -7.39625576973007   -0.69217473053606   -1.39085856915429
H        -8.47645918869674   -2.08118153911551   -1.12027792509639
H        -5.76728928323773    0.01528129920163    0.23529939814408
H        -3.49987378403685    0.46290171891477    1.01675968977041
H        -0.59014244368883   -5.47591909305107    1.82840169844503
Cl       -0.55669763168617   -0.62255962093610   -1.14093099549133
