74
 energy: -113.602671529595 gnorm: 0.000175943508 xtb: 6.4.1 (afa7bdf)
Ir       -0.34946844358202   -1.02182209796775    1.75499523704580
C        -1.79350578855629    0.95008304055521    4.17725182078241
C        -0.58301452608834    0.38271359489526    3.51783712020165
C         0.04059876003468   -0.83835550275427    3.96547466091152
C        -0.43729379493419   -1.65550040147176    5.11710433745785
C         1.33285472746089   -0.93464458948234    3.33787790628704
C         2.45030232300053   -1.83313702071581    3.73919857164239
C         1.44719229794823    0.13915597041649    2.41517846821857
C         2.67705349881448    0.48862761504034    1.65050862323923
C         0.25309000304155    0.96928514911267    2.51890316859087
C         0.17416002658831    2.33501476921617    1.89313063578924
C        -1.11919799072232    2.63386689496527    1.12864819642478
C        -1.00728712882989    3.99666642623681    0.44992673617105
C        -0.74924528584061    5.08983163144581    1.48446733453336
C         0.51566114407077    4.78637290570803    2.28351114236255
C         0.41667771596620    3.41968555336168    2.95603517233061
H        -2.57237816415999    0.19938950244975    4.29261496989183
H        -2.19147886807199    1.80288079107474    3.63972829725192
H        -1.50903936652777    1.28130613596158    5.17708571408946
H        -0.03123246400554   -2.66204110027363    5.08591452309523
H        -0.11136106547936   -1.18561716608785    6.04584198703096
H        -1.52172257470129   -1.71619539008651    5.13297777127228
H         2.12444559780528   -2.58980969646934    4.44435430081763
H         2.89932061958647   -2.32350618653202    2.87865602236907
H         3.21980878815314   -1.22722695132424    4.21838654801409
H         3.37714008087046   -0.34123684432224    1.64346987124602
H         2.43461329863175    0.74573719839505    0.62148850903524
H         3.15909001808801    1.35009712779009    2.11298974592065
H         0.98637211625235    2.39859619166215    1.16316682500361
H        -1.97434314337109    2.65759227327570    1.80379249048517
H        -1.28113698416565    1.85660487350770    0.38040289244153
H        -1.92744221346416    4.21234825132258   -0.09674704141557
H        -0.18979343367058    3.97901176989839   -0.27429941530928
H        -1.60187580450548    5.15657555260783    2.16440337967231
H        -0.64794762451153    6.05543828344861    0.98537310329385
H         0.66972733092859    5.55730249495373    3.04116728440256
H         1.37818876568435    4.80262255124089    1.61330850778231
H        -0.40373252642393    3.42853884717002    3.67382343731853
H         1.33843080565139    3.20618280778308    3.49992522879360
C        -8.26116664090734   -1.18163466427760   -1.06921626809687
O        -6.96260388011110   -1.02641170954015   -0.49620910352139
C        -6.07252667195965   -1.97530424265163   -0.75206403839289
O        -6.28091121704402   -2.94892231074202   -1.43676891672829
C        -4.76160846467858   -1.71057421499071   -0.08040456635395
C        -4.51779646755084   -0.55189184813146    0.66319572933170
C        -3.28358098601723   -0.38659914414912    1.26015751176520
N        -2.30726851851420   -1.29030854623630    1.17473210553567
C        -2.53144549864107   -2.41470636963090    0.44674705893941
C        -1.41561991539801   -3.30827396324207    0.39993393079792
N        -0.35590152630068   -2.96017597319061    1.05791560376838
C         0.78697753556409   -3.77166611863659    0.97824837635983
C         1.35344842152304   -4.29899996619338    2.12867187498018
C         2.49593594478260   -5.10189377883083    2.07149058506476
O         2.94635395434811   -5.55842082948781    3.25659244591180
C         4.09922424573132   -6.38218125868462    3.28585387416786
C         3.08180532368982   -5.36205759125127    0.83213920879507
C         2.51750710186557   -4.84815040555917   -0.32348042696173
C         1.37491302970434   -4.07898445417453   -0.25416111985075
F         0.82111934033886   -3.60727395854901   -1.39246878463836
C        -3.74761806143177   -2.64852999206700   -0.19317160216804
H        -8.18658495976906   -1.28220035090434   -2.15301536595409
H        -8.74465603954367   -2.07215203203078   -0.66456846425285
H        -8.81438670816124   -0.28662927320475   -0.79991208905606
H        -5.28201609428233    0.19984768969539    0.77038933372313
H        -3.07120472175330    0.50223607792843    1.83277798605845
H        -1.46792381648201   -4.23242462205045   -0.16428457266775
H         0.88631591497821   -4.12227067188058    3.08214780632221
H         4.97343529786707   -5.85473450912837    2.89604534111323
H         3.94214043524160   -7.30565017357307    2.72343342604179
H         4.25670612668215   -6.61926132735391    4.33573615687674
H         3.96806166546251   -5.96844532468733    0.75061265714534
H         2.95413775506797   -5.05081460636201   -1.28826894800271
H        -3.90303376798010   -3.54453595601791   -0.77335759699449
Cl        0.00704714147119   -0.45656384098946   -0.53322023486549
