74
 energy: -128.393742082030 gnorm: 0.000417685932 xtb: 6.4.1 (afa7bdf)
Ir       -0.23317727649726   -0.99941189836534    1.52205623551515
C        -1.95792971166521    0.92145408565594    3.74083536019623
C        -0.66427733893437    0.30800801361013    3.33093839119297
C        -0.20348151653577   -0.97994314201431    3.76534356988381
C        -0.91081397938470   -1.84639772792867    4.75158188317631
C         1.16052881095567   -1.13359890515727    3.32427596815812
C         2.14717610369086   -2.14282302776550    3.79879166994003
C         1.50776204909242    0.00887236652113    2.54886249567257
C         2.87451388746416    0.30684492601592    2.04181788781014
C         0.37259038875429    0.91140429665393    2.54635492026784
C         0.45004456484482    2.30915400594176    2.09803207237812
C         0.09529917246948    3.33866111299014    2.96879662897653
C         0.23097875073208    4.64861607240523    2.54996033880541
F        -0.11326100420927    5.63738028773034    3.40045402512947
C         0.70550374278253    4.98720125196347    1.29536730596427
C         1.04904631997011    3.94297548596076    0.45376971141941
F         1.51265100344932    4.23597093137969   -0.77773793631800
C         0.93427768932908    2.61766251566954    0.82571123599776
H        -2.18988619679047    1.79760548676198    3.14324854105199
H        -1.89249772430447    1.21472287192806    4.78934478300445
H        -2.77489717546235    0.20897257029899    3.65240631389380
H        -0.59259086877257   -2.88127427681662    4.67167282877323
H        -0.68324569644491   -1.49645604260038    5.75922489717169
H        -1.98721680670281   -1.79845958746077    4.61363554515689
H         2.89532953272323   -1.63322489567102    4.40735268957798
H         1.67456626535140   -2.90375897373600    4.40956884646652
H         2.66258148105152   -2.61435905469225    2.96517102342314
H         3.08343038481387   -0.25860943700696    1.13484423007319
H         2.97799187342769    1.36337190059618    1.81103419826732
H         3.61405007449213    0.02616969366397    2.78937605167284
H        -0.25233997846527    3.13643574081099    3.96788611494871
H         0.80529000027525    6.01467616285264    0.98793270086619
H         1.18951269161757    1.83727396527896    0.12454498458994
C         1.20914163051911   -2.61221358522067   -3.74644744596823
O         1.61938045796018   -3.18700177793552   -2.50894285371736
C         0.66522740908840   -3.47322064836160   -1.63669411985460
O        -0.52098444481979   -3.33243606125534   -1.85586177921098
C         1.21711950640036   -4.07599892001051   -0.38758184597494
C         2.32737289820411   -4.89656279607033   -0.46354136581206
C         2.83105733546146   -5.54652860254311    0.67009067114136
O         3.90687246932538   -6.32753957132338    0.47087348842476
C         4.47922269894991   -7.01106420075195    1.57336053797859
C         2.18952835024140   -5.35643030443023    1.89527196887712
C         1.10433834072046   -4.50490532162412    1.98324890835198
C         0.61178106906938   -3.85005662930370    0.86270481491401
N        -0.46478937800696   -2.94971600361578    0.96075886267504
C        -1.59841280108935   -3.27570861755141    0.43515164372718
C        -2.58392791695239   -2.24468868601289    0.30008794033500
C        -3.88508483723196   -2.49614198311443   -0.17596520432377
C        -4.75077008671199   -1.45182750870822   -0.33179434619016
C        -4.29101382979957   -0.13698244718146   -0.09426614768700
C        -5.11117850525512    0.98604968738618   -0.30769741237086
C        -4.61007566403590    2.25091364060472   -0.13268620923187
Cl       -5.61184538151081    3.63515414065674   -0.39485805331308
C        -3.26660669680061    2.44080670312645    0.23706396873742
C        -2.46092969795757    1.36247383855826    0.47652436475656
C        -2.94702884690998    0.04647621734540    0.34973090687841
N        -2.14727557790506   -1.01609688600892    0.61490627632460
H         2.11211415447703   -2.50386916651703   -4.34031280722014
H         0.48810386641245   -3.26219645820827   -4.24530190362349
H         0.74839528660322   -1.63904420215880   -3.56616557753303
H         2.81223969550689   -5.06388229620774   -1.41107017095434
H         4.82961416185720   -6.30908025605866    2.33385847134134
H         5.32741184491943   -7.55673496559706    1.16544145846317
H         3.77078617230606   -7.71735666252781    2.01316881705171
H         2.52665921331536   -5.86588939157495    2.78266350443271
H         0.60034061087750   -4.37262383095234    2.92599219579523
H        -1.79619649747706   -4.27921477453775    0.07939649648540
H        -4.17108766652545   -3.51039866671434   -0.39928349845295
H        -5.76677404669034   -1.60762702679667   -0.65899867202273
H        -6.13057696039685    0.83761817302702   -0.62578226803966
H        -2.87932021722295    3.44308981633808    0.32336076507273
H        -1.42111578683212    1.50773286739927    0.71602085463911
Cl        0.72485315478714   -0.67096461103192   -0.61716974801182
