76
 energy: -119.184381657131 gnorm: 0.000252840116 xtb: 6.4.1 (afa7bdf)
Ir       -0.04241176425638    0.00678276003426    1.81870538137133
C        -1.59756672936443    1.71680326648707    4.33838656039942
C        -0.36138695240589    1.14480267023154    3.73511990306374
C         0.21273699047244   -0.13223675171602    4.06022741573149
C         1.53546406994987   -0.17930448704097    3.48843864539988
C         2.61460875817454   -1.15942431896496    3.79469261446548
C         1.73836304307773    1.01590666729087    2.74764986977045
C         0.55405236041468    1.83993475531143    2.88348903235055
C         0.47918724401495    3.25968378476357    2.49339493530307
C         1.32633165501456    4.17031006641386    3.12152530432792
C         1.28300903076534    5.50924337617030    2.78883259138116
C         0.40560434863548    5.97350723290820    1.81063146152174
C         0.38411371933428    7.39634254665025    1.43835196907324
C         0.31616942682806    7.77586020898363    0.09938215407655
C         0.31249832118840    9.11301525609809   -0.25352607027963
C         0.36674347903372   10.09190490373875    0.72550291036120
C         0.42810344394747    9.72540266167771    2.06018065418395
C         0.44008625030049    8.38855945658189    2.41474495402930
C        -0.43524683760940    5.05746949286403    1.18261006615658
C        -0.40311598685222    3.71904133375695    1.52230565077388
C         3.01631180052744    1.43845336876303    2.11206299270520
C        -0.34924435538749   -1.07334001791898    5.07161512837290
H        -1.40695359197521    1.91764297942050    5.39331176572352
H        -2.43429458091808    1.02410421159500    4.28227608246152
H        -1.85959386408066    2.65618161669921    3.85792426238168
H         3.35325484134544   -0.66930558005791    4.43044899287493
H         3.12295468190706   -1.48283095004691    2.88892598417260
H         2.23758046760920   -2.03068732213291    4.31886725730504
H         2.01660455352327    3.82507260656597    3.87634142068983
H         1.95530567482503    6.20222481081656    3.27227630577301
H         0.29080627173189    7.01750426391286   -0.66979892162658
H         0.26967511411255    9.39354425350075   -1.29617589217636
H         0.36228639866880   11.13619871498642    0.44925737970385
H         0.46672185891582   10.48548800613275    2.82710354009833
H         0.47529820753317    8.11079462409650    3.45825336379891
H        -1.12522055529210    5.40047701072254    0.42637137780377
H        -1.03329032818637    3.01551612725157    1.00019315063898
H         3.47985063847704    0.61193882304680    1.57827047255090
H         2.84522174762329    2.25525303595144    1.41572486313592
H         3.71106320430762    1.77540601814882    2.88253863505978
H        -1.43100303469163   -1.13392910410717    4.98970197491245
H         0.06901114355330   -2.06967407318033    4.96552942610667
H        -0.10699385659441   -0.70837694450877    6.07048782198074
C        -6.44637551940252    0.65933901584078   -1.15104357855444
O        -5.40316275509138   -0.30256697594089   -1.23888480296035
C        -4.32474421479841   -0.17305018329360   -0.47663738397817
C        -4.09129098877543    0.85761769279997    0.44818647467999
C        -2.91812291741436    0.86636171041184    1.17168016132910
N        -1.97472690989347   -0.06571725533037    1.05724571398577
C        -2.18527779184896   -1.07270044302995    0.16893888894307
C        -1.11952062939504   -2.03205973514637    0.12154437211047
N        -0.11732834561923   -1.83478776284169    0.91373705932559
C         0.96168953343209   -2.73406254971426    0.88951103434611
C         1.31724341038405   -3.41923069750432    2.04094541843202
C         2.38852663652408   -4.31566037799689    2.05061979513549
O         2.62761740546571   -4.92356153948258    3.23033325237488
C         3.68226449899465   -5.86559635367867    3.31833599439628
C         3.11992775212101   -4.51132010819877    0.87892092820174
C         2.76621499373129   -3.83891910828261   -0.27903740002041
C         1.69060609526112   -2.97497067460041   -0.27945553404895
F         1.34165060041086   -2.34816982715623   -1.42443566344913
C        -3.33353836490224   -1.15561606102771   -0.60041818857087
H        -6.88132279119756    0.67399140570685   -0.14950367582385
H        -7.19635639629077    0.33606213271229   -1.86938993119974
H        -6.08682652468438    1.65428382946252   -1.42122237432301
H        -4.80773462453085    1.64546856908409    0.60841487912770
H        -2.73764796497131    1.65680036480726    1.88415457096223
H        -1.17097432944022   -2.88787053716960   -0.54201813682989
H         0.73700541723126   -3.28693884228779    2.93800589091723
H         3.52186618375599   -6.70513424799456    2.63739862593179
H         4.64859964530155   -5.39900781414540    3.11144111614841
H         3.66422861742263   -6.22315335772733    4.34558243069179
H         3.95855861195529   -5.18638640125420    0.85076162126828
H         3.31659622520227   -3.98931317664693   -1.19390034987080
H        -3.46991489723083   -1.96138305546490   -1.30238507433397
Cl        0.51695102942389    0.79353500322646   -0.35785952213244
