82
 energy: -126.505613325360 gnorm: 0.000687504296 xtb: 6.4.1 (afa7bdf)
Ir       -0.74397426020858   -0.78227711771484    1.85326460722603
C        -2.67950001916077    1.12576470475108    3.97579119159235
C        -1.38341951536922    0.45989732565353    3.68005097994304
C        -1.07610870338904   -0.88528718092638    4.06782566805940
C        -1.97212821405364   -1.77138643552226    4.86630031854983
C         0.32478608285873   -1.10819592246301    3.82304867039584
C         1.13835277190179   -2.22491785640394    4.38314081495808
C         0.85097324059694    0.05006551409841    3.18234796981572
C         2.29349727525259    0.29431508023396    2.89812571809772
C        -0.21549188856288    1.03592030427179    3.09041911680609
C         0.04091182017398    2.45043047469923    2.80161385699849
C        -0.41955495649104    3.43793460734077    3.67214179472910
C        -0.06106829728619    4.75317877323323    3.45023355158081
F        -0.50459875947800    5.69679477309923    4.30718641416854
C         0.75075059607846    5.14006623564840    2.39983777343695
C         1.18129291144586    4.14112011629051    1.54563304533933
F         1.96413162212497    4.47910984553833    0.50111635871275
C         0.84303040628204    2.81386311671258    1.72050414307027
H        -2.76174919593266    2.07867342444086    3.46348587551262
H        -2.74923397455802    1.29299669672697    5.05175177730117
H        -3.51804861154147    0.49340486734565    3.69159369044946
H        -1.75291522369302   -2.82090727110660    4.69088960549234
H        -1.82329580513480   -1.56683025378562    5.92713645579967
H        -3.01602274589120   -1.58702983571331    4.63046415066223
H         1.63813019580902   -1.86196326466850    5.28297305764292
H         0.51456713997159   -3.06608137678372    4.67000103589484
H         1.90587906395729   -2.55508590275125    3.68874063306440
H         2.52225426925446    0.12913793142858    1.84576192902794
H         2.54875522228262    1.32614513191214    3.13077637776065
H         2.91445819252559   -0.37093958649161    3.49162858034985
H        -1.01227235498798    3.19792910956895    4.53841068325857
H         1.03722792920257    6.16840855210716    2.25770586573885
H         1.18514503211081    2.07854809021865    1.01055620946645
C         5.19696400815815   -5.70200718805533    2.07131390967007
C         4.82390178460652   -5.31536024786161    0.64336897415793
C         3.82307080621237   -4.16089808543889    0.56704377479615
C         2.44535049598682   -4.52055832294801    1.12257643592703
C         1.43781235339049   -3.40107949245728    0.86762726329869
C         0.07702405466779   -3.74079359832981    1.48781868612619
N        -0.90384402543279   -2.71404969770218    1.23782871388910
C        -1.95139622093678   -3.00986899999773    0.55638799129403
C        -2.90984023849925   -1.97484609161817    0.28120729664369
C        -4.11566757552497   -2.22703681921369   -0.36384145280653
C        -4.99039083972135   -1.17493005416776   -0.57580528925605
C        -4.58756033783548    0.09371272341522   -0.20124489453793
C        -3.33932792181658    0.29413898297772    0.39717203887060
C        -2.91957212415980    1.69359531201476    0.58890854674541
C        -3.74582669587153    2.59559628697847    1.26180256362271
C        -3.42230145927020    3.93621067618832    1.29846777364050
C        -2.29828404700740    4.40539933217295    0.62040164391102
C        -2.02533099568195    5.86441234997191    0.63504070722291
O        -2.69038952888082    6.67145900246283    1.24651249329402
O        -0.96213715634636    6.19144666060545   -0.10336058489671
C        -0.61933173604631    7.57169993371138   -0.17718103586265
C        -1.48832513618990    3.51079136291182   -0.07264733486303
C        -1.78778201100970    2.16130740325424   -0.07372857138374
N        -2.53775244534533   -0.73546799190323    0.69242838111589
H         5.96945091689178   -6.46788340590319    2.06158202083589
H         5.58146175445836   -4.83973809886597    2.61205714641648
H         4.33962947931283   -6.09837817255007    2.60854991136964
H         5.73176455285479   -5.02047293444707    0.11132550001085
H         4.41266835030645   -6.18648311905268    0.12769524191916
H         4.22503835688916   -3.30325601715428    1.11058217006209
H         3.71622957916364   -3.86519075179401   -0.47907635704422
H         2.52190150510513   -4.70856335673695    2.19422584264828
H         2.09987546491753   -5.43997197869408    0.64585782505271
H         1.31507998597864   -3.25358416604050   -0.20576143387468
H         1.81033461064102   -2.46463544798578    1.28326432308340
H         0.19525852956180   -3.84662420163368    2.56750694027138
H        -0.27367559130697   -4.69382694417705    1.08026044451652
H        -2.12464176924018   -4.01220539512691    0.17738175237496
H        -4.35486570196863   -3.22940406587674   -0.67864038657487
H        -5.94970473346456   -1.33445036735457   -1.04189868241117
H        -5.21103774152701    0.95256390725599   -0.39053830135660
H        -4.63796251743180    2.24543790741093    1.75843140613049
H        -4.03974851255795    4.64613380098324    1.82715275399838
H         0.39540594206376    7.60992220767513   -0.56487904126191
H        -0.68132427333092    8.03051945013024    0.81158615761024
H        -1.30418782785959    8.09117640547943   -0.84975694351248
H        -0.63944753606335    3.87784385072477   -0.62567981722861
H        -1.16524318281169    1.47351234457402   -0.62216277875426
Cl        0.46076210566691   -0.37803855892150   -0.15176164619841
