72
 energy: -99.491489241557 gnorm: 0.000440820887 xtb: 6.4.1 (afa7bdf)
Ir       -0.65694010540258   -0.60611512572364    2.26827222612840
C        -2.68398278500618    1.86215500385823    3.92398451190535
C        -1.50203952390649    0.96287801061447    3.81191994090746
C        -1.53401352106002   -0.39335935265304    4.32778022399173
C        -2.72998676377458   -1.04512826473025    4.93168319333099
C        -0.19164310311447   -0.85148992253501    4.46770261581554
C         0.21996439640130   -2.01946883119466    5.29751936116920
C         0.65921864419745    0.12238079348167    3.84255298029593
C         2.15179627036873    0.12150534463864    3.87438179794591
C        -0.16289497712577    1.28284543975161    3.49927437980973
C         0.43652377786689    2.61462778902692    3.14562396933395
C        -0.15094926162684    3.29814457956214    1.90773395365767
C         0.60964977059602    4.59063637188089    1.62512872581195
C         0.53280811337599    5.53188084983901    2.82457570164094
C         1.09037858689423    4.85266437197402    4.07240421276581
C         0.33973796369019    3.55542269085821    4.35918576775321
H        -3.59405747919750    1.36229886924083    3.60357890881901
H        -2.56629496762797    2.77409867816325    3.35200783145162
H        -2.80390260150618    2.12430631022360    4.97671571511671
H        -2.61394627070406   -2.12474847948061    4.96438440636641
H        -2.85529627564779   -0.68546090180050    5.95385413538218
H        -3.63311317419045   -0.80272316257694    4.37872414240703
H         0.00836746995355   -1.77659429207346    6.33990136723019
H        -0.34359586528999   -2.91637206680562    5.05168521289510
H         1.28371566785824   -2.22070624375685    5.21601191622767
H         2.54345639018382   -0.88184422250071    4.01168317942559
H         2.56025772575747    0.52539541372628    2.95127653356572
H         2.49781056864786    0.74269458740382    4.70078106880916
H         1.49825592285733    2.45243455158021    2.93805372265399
H        -1.20400265442806    3.53437153617311    2.05923408686879
H        -0.06971899920345    2.62446795886735    1.05474110546090
H         0.19227407765756    5.07973911796992    0.74263145160836
H         1.65565607168853    4.36079919533291    1.40961540113181
H        -0.50807203603113    5.81497243443630    2.99911895852983
H         1.09412980220154    6.44527839494451    2.61733260201681
H         1.00391736500830    5.52258389151421    4.93042464870276
H         2.15132263365456    4.63863641038021    3.92330351004586
H        -0.70580756533847    3.78244395060657    4.56722040454696
H         0.76230916153410    3.06910345091420    5.24039927411249
C         4.63003469652320   -2.36828746948321   -0.22579174355409
C         4.56387315738696   -3.25853471449086    0.74651323250320
C         3.36578734883422   -3.58743016328968    1.58746944852386
C         2.10564530249000   -2.81455453162755    1.21311647785642
C         0.92918414916479   -3.22069491211770    2.11435069345133
N        -0.25934414075274   -2.49607041763631    1.73034455960255
C        -1.07318230746475   -3.06790400816309    0.90805058336045
C        -2.15272110698842   -2.30058793790777    0.36590967711523
C        -2.99980340283650   -2.78122499256709   -0.63430483504109
C        -3.96147921808282   -1.93646636537762   -1.14368886422060
C        -4.01236851803569   -0.61122908942558   -0.69826384327151
C        -5.06814773350121    0.18995048001695   -1.18250571455905
N        -5.97768569194707    0.76546256195452   -1.58008914363759
C        -3.07653609509052   -0.16909739980246    0.26173108781137
S        -2.91021510094888    1.46949144470416    0.80982902125151
C        -3.42808120300326    2.51091418757198   -0.58445677071337
N        -2.22335526260901   -1.03317956646680    0.82954746781571
H         5.54367831652957   -2.20624438264402   -0.77271139504543
H         3.79251451117538   -1.76168987616163   -0.52312384194768
H         5.44398428707958   -3.83709430698138    1.00034366204235
H         3.17968942312951   -4.66236624673573    1.50126872380393
H         3.62526676901795   -3.39495872191635    2.63271975614284
H         2.28007491339481   -1.74392496169108    1.31181108155079
H         1.84431710031138   -3.01780595775787    0.17413509698225
H         0.75472642567636   -4.29706055188718    2.01860153689566
H         1.17765496641532   -2.99150910854196    3.14881461556113
H        -0.91999619411140   -4.08836768732441    0.57346468327063
H        -2.89816854656977   -3.79287805547613   -0.98888308420430
H        -4.67325839043381   -2.27381556088171   -1.88142372195217
H        -3.10918087270297    2.05836695912665   -1.51732125794499
H        -4.49980496494957    2.67686704920278   -0.57346805205947
H        -2.90497531217214    3.45167220158476   -0.43680074447953
Cl        0.49332724494773    0.10583997112060    0.32159046143393
