72
 energy: -107.392938925467 gnorm: 0.000404567942 xtb: 6.4.1 (afa7bdf)
Ir       -0.20060123171346   -0.52757337730584    1.70109496894636
C        -1.78431836183536    1.46339307586730    4.00065271755465
C        -0.52877232128758    0.88479716340609    3.44063307926350
C         0.02122200069667   -0.36254440442364    3.90820568124299
C        -0.55165176883791   -1.18640286180379    5.01110666464429
C         1.34794315322901   -0.49723022676650    3.36750578995384
C         2.34712150891229   -1.51163853459380    3.80500605568875
C         1.56665985420426    0.58897372705440    2.48066085256064
C         2.84777429483293    0.91972529266849    1.79233737636342
C         0.39420557357459    1.45662051870269    2.51752059953164
C         0.38751888190276    2.83337364217139    1.90860382018648
C        -0.83004149926333    3.14724895196044    1.03268991745639
C        -0.66801828661499    4.52656231050927    0.39948762050490
C        -0.51104271305597    5.59576352513186    1.47826329023212
C         0.68271192097170    5.28012167830363    2.37591934310580
C         0.53377276379104    3.89854981463050    3.00725981322316
H        -2.57662827090681    0.71894529002906    4.03842363967839
H        -2.12884640226474    2.32086944381168    3.43477517798059
H        -1.58620973975418    1.78508140982271    5.02393853835801
H        -0.17053888245353   -2.20282088323333    4.97877356772230
H        -0.26707290131478   -0.74915101067282    5.96881963116506
H        -1.63638875853788   -1.21290923006253    4.96178198248485
H         1.87242216796903   -2.46017417561339    4.04076534467078
H         3.10342920752315   -1.68374060075143    3.04515227446976
H         2.84287012799558   -1.14725809687219    4.70545679556102
H         3.53862140983381    0.08284628299420    1.83057786036647
H         2.67252366119925    1.17876015056599    0.74990777279772
H         3.31386020034253    1.77486291301008    2.28225068264334
H         1.26498903359569    2.90480740004317    1.25916830595124
H        -1.74402745835335    3.14863182406630    1.62661538135287
H        -0.91730285070350    2.38727117434549    0.25458053532030
H        -1.53717161530385    4.75085561090473   -0.22215439967524
H         0.21148649737019    4.53137319698157   -0.24802604957069
H        -1.41972967080327    5.64018553774374    2.08362691003632
H        -0.37518586932357    6.57443856751615    1.01371132608016
H         0.76715715755605    6.03440070477151    3.16106318484705
H         1.59931212113835    5.31484911372205    1.78237621947666
H        -0.34423543128766    3.89056841446365    3.65328165371602
H         1.40684173906483    3.67560165271223    3.62358776752475
C        -6.83497773767556   -0.98911881682116   -0.74655650764215
O        -5.75711224619207   -1.90798925632791   -0.62596173796748
C        -4.61988724305889   -1.51642249108152   -0.06552005545710
C        -4.35392804687613   -0.23553682614719    0.44490757809967
C        -3.12141623170056    0.02861580397028    1.00298075260586
N        -2.14959702046914   -0.87474259886237    1.09572836281481
C        -2.38130773218972   -2.11578357570414    0.59261419660394
C        -1.24499525173852   -2.98863458907266    0.67464190266273
N        -0.15543640637824   -2.48545636983722    1.15811120098045
C         1.00358697339679   -3.27128691643639    1.23797917454772
C         2.19640406968809   -2.76882659411911    0.72970225589121
C         3.33613651685322   -3.55323406442528    0.77487208322244
C         3.27934833101182   -4.80627964508548    1.34639676838709
F         4.39961147461209   -5.55746089370170    1.39688872232856
C         2.09237487509550   -5.33394863179291    1.88383190135782
O         2.16343152960954   -6.56353215496729    2.42574504815026
C         0.98998780697232   -7.14360931170749    2.96776817324071
C         0.94960006112521   -4.54446977191013    1.80918471125577
C        -3.59256620970600   -2.46634323172886    0.02048689882443
H        -7.17258481462492   -0.65116409585718    0.23535608297003
H        -6.55407294275216   -0.13336171404642   -1.36362613082878
H        -7.63284019876857   -1.54355212997435   -1.23528139995563
H        -5.08898439440920    0.55049992919761    0.40870108467238
H        -2.90299431955319    1.01151291658526    1.39061016469985
H        -1.29005753821613   -4.00255397800404    0.29520009147313
H         2.20972168229575   -1.79517467082047    0.26762888896876
H         4.27194464814816   -3.20492203438500    0.36904688372055
H         1.29700121134936   -8.12079451250418    3.33377047109470
H         0.60377361261024   -6.54857524656207    3.79863394316443
H         0.22076584029047   -7.26687298115868    2.20167851184723
H         0.01479505843379   -4.89623851369766    2.21486715041363
H        -3.75138967620396   -3.45533913673543   -0.37605768913028
Cl        0.19149407701130   -0.03811488183664   -0.60669117649531
