58
 energy: -105.422389855536 gnorm: 0.000646644303 xtb: 6.4.1 (afa7bdf)
Ir       -0.57826983179555   -0.97867027942157    1.59443357600173
C        -2.20406804551094    0.73165302381336    4.14864041790354
C        -0.96059184982759    0.15686574122498    3.57737078747562
C        -0.50954850865314   -1.18647131793257    3.82684777372900
C        -1.19316444940501   -2.15951034150000    4.72391348450398
C         0.82781627044751   -1.30770019816452    3.31786144736575
C         1.78376661859791   -2.39735553998267    3.64845071796006
C         1.15614680885185   -0.08604120450577    2.64258886713819
C         2.50772162741885    0.28055029364026    2.14499297438878
C         0.03802679073514    0.82787239633413    2.81104169943381
C         0.09802056679615    2.27051671783907    2.52219922419782
C        -0.07757938103762    3.18107792505433    3.56214643409370
C         0.02690376563182    4.53326768035327    3.29432552114748
F        -0.13863356732672    5.40605823988158    4.30854747702954
C         0.29558168937619    5.02566867989698    2.03004174365477
C         0.46308903528992    4.09495747914290    1.01969816801627
F         0.72309551154875    4.53640733466337   -0.22762838318359
C         0.37413737754454    2.73404643300413    1.23840234486156
H        -2.38402680584069    1.73584967203704    3.78034468822399
H        -2.10115631797740    0.76406027149656    5.23407968074310
H        -3.06857307817542    0.10946436878227    3.92684649560922
H        -0.87706564551594   -3.17722691368214    4.51451230911334
H        -0.93312722381735   -1.93085322888630    5.75816387176266
H        -2.27301971327615   -2.09203453719194    4.62735065274903
H         2.23920314593588   -2.16192745484830    4.61136307217710
H         1.28720349534672   -3.35899646492979    3.73844106171673
H         2.57625193267430   -2.47117659576215    2.91090949554979
H         2.97903644421426   -0.55325114715442    1.63199515923416
H         2.46303939278607    1.13167247024416    1.47281981018345
H         3.13133081528553    0.54796859737960    2.99926632611467
H        -0.26780686113054    2.85469883105313    4.57116711365553
H         0.37117450829658    6.08326142066683    1.84034183646306
H         0.48558693691249    2.04988943164630    0.41197458454957
F        -4.30241826262181   -3.84649846778992   -0.79420595950640
C        -4.05678893908117   -2.60110789932124   -0.38628540919218
C        -4.97610892273060   -1.59240054425877   -0.60892300299121
C        -4.63352009220346   -0.31280918915924   -0.20099793517956
C        -3.41259041494251   -0.10459413325602    0.43124227347667
Br       -2.93283866187999    1.65496283971147    0.89860547776243
N        -2.55404854193152   -1.08334454725741    0.70356627586872
C        -2.84485758230312   -2.33301633533175    0.26311498096744
C        -1.79914320887577   -3.29276778234872    0.42067281306809
N        -0.67347637770807   -2.87346695926591    0.90973350977408
C         0.40909542204281   -3.75952408149829    0.98589205859476
C         0.25415016029620   -5.04571244812965    1.50796343487779
C         1.33171552500739   -5.90834933780725    1.55392410506521
C         2.56098670581463   -5.49487915279847    1.05681667711870
Br        4.05440510815597   -6.69701736760846    1.10610835058401
C         2.72522574950150   -4.22061089845216    0.52819924549982
C         1.65453874019820   -3.34919546641598    0.50649248226302
H        -5.91311146028979   -1.80019571390055   -1.10112937229077
H        -5.29791439850461    0.51968732487868   -0.36849626202009
H        -1.92847467318520   -4.30634596583590    0.05825835112301
H        -0.70032665679198   -5.35737698395890    1.90266500906387
H         1.21941173672746   -6.89621835451496    1.96976081974444
H         3.68263744892150   -3.91644569533481    0.13656799485121
H         1.75559981275769   -2.36236453704568    0.08049509029499
Cl        0.03577532921271   -0.29300908749737   -0.60113944236779
