62
 energy: -93.816076536167 gnorm: 0.000477576973 xtb: 6.4.1 (afa7bdf)
Ir       -0.07382262489950   -0.89729562950324    1.60442134923204
C        -1.96919673104361    1.29132413007697    3.47581187170404
C        -0.69515432407698    0.55430288051741    3.25318276115393
C        -0.39666952935370   -0.74430967613281    3.81224351390919
C        -1.29469532972954   -1.50773605511938    4.72365639343011
C         1.00286351474604   -1.00727055296147    3.59738226911351
C         1.79355938313856   -2.07988314667738    4.26336269944671
C         1.52969574975603    0.05857148764819    2.80796792709085
C         2.95999556604664    0.30381921677949    2.47406019906147
C         0.46865863184642    1.03326034173369    2.60191001434065
C         0.68709346569352    2.38060343218806    2.00439689288641
H        -1.96349679247915    1.69143757167686    4.49073059135333
H        -2.83335063782421    0.63719654320992    3.38556553564115
H        -2.07765141402655    2.12780740263550    2.79058374596687
H        -2.33655946149805   -1.38668750226367    4.44167272334190
H        -1.05148692319362   -2.56620077172103    4.72595248682399
H        -1.17443601686543   -1.13021906235452    5.73975170453083
H         1.18157819548083   -2.94917155724494    4.48583636693097
H         2.64902729485974   -2.37761953954490    3.66398415689120
H         2.16922387197587   -1.68751544393198    5.20945430684902
H         3.06128320419241    0.64020423196290    1.44448059471834
H         3.56279954013795   -0.58750362878833    2.61810684770265
H         3.34565127484631    1.09160009063229    3.12157779787031
H        -0.25049636181428    2.89960255695612    1.82839123726142
H         1.22171253946056    2.29815314415763    1.06042486049877
H         1.29370807812421    2.98120618925021    2.68240621816204
C         7.31671955663581   -4.20059536377169    0.18744990545856
C         5.99015343187922   -4.66895549523250    0.77536595338652
C         4.84021290482109   -3.73536745337970    0.40058951445415
C         3.51160608405961   -4.20387984504135    0.99193172583820
C         2.36769812711115   -3.26730689323283    0.61125767767688
C         1.04054363770589   -3.74073604171532    1.22345593271676
N        -0.01615797830859   -2.80844505240347    0.92928752969942
C        -0.91577851762891   -3.13460893664273    0.06041052080733
C        -1.92192642386035   -2.16208820169358   -0.24500493598491
C        -2.91367215629713   -2.31910745762473   -1.21753187053455
C        -3.80167655451324   -1.28952770094737   -1.44553302927236
C        -3.66220366363076   -0.11990129570549   -0.69075355800765
C        -4.60245578029433    1.03181748730138   -0.92580023267919
F        -4.43884737118377    1.57226773549758   -2.14544521305239
F        -4.44041079520329    2.02419783459267   -0.04067229328296
F        -5.88942470981935    0.65457245113135   -0.84953319062771
C        -2.65639403071156   -0.02657486220878    0.25623537611476
N        -1.81181242261396   -1.02455925458056    0.48759090291214
H         8.11770169126867   -4.88418843933859    0.46023217987524
H         7.57261631792371   -3.20940140194483    0.55640160105471
H         7.26071914121617   -4.15646514640216   -0.89844515298179
H         6.07758171858592   -4.72126251375819    1.86311496440774
H         5.77232118847082   -5.67628213592040    0.41287969392686
H         5.06630188166044   -2.72812764291251    0.75670157602598
H         4.75811241010656   -3.68693001756850   -0.68710503131771
H         3.29683848850039   -5.21111031878396    0.62982242590750
H         3.60336116432080   -4.25819309376092    2.07865464925911
H         2.58217475739657   -2.25334653295747    0.95112412731106
H         2.26574946669517   -3.23020293562914   -0.47382694980009
H         0.79324183739553   -4.73044047301623    0.82854911826693
H         1.15271800677801   -3.80859702965869    2.30670480475104
H        -0.91374380712741   -4.09932477396814   -0.43486785217244
H        -2.96803259494281   -3.23402319541123   -1.78490889678713
H        -4.58190868666993   -1.37155097052210   -2.18627087773403
H        -2.53256617946260    0.87325555017274    0.84035441394564
Cl        0.84617769624626   -0.21928123614459   -0.49162057546966
