86
 energy: -127.223485143685 gnorm: 0.000646548214 xtb: 6.4.1 (afa7bdf)
Ir       -0.35910484794429   -0.51510152748742    1.74911581953417
C        -2.32291199394481    1.46586547041430    3.81282191365670
C        -1.11008001362258    0.63838518698968    3.56345456708539
C        -1.08152621161612   -0.78671197774135    3.83811089779393
C        -2.23873483761798   -1.58155364571705    4.34334335442342
C         0.27822330743438   -1.21119450946116    3.84179917040413
C         0.75708869667931   -2.53163703954141    4.33459371135287
C         1.07960110742694   -0.10274315146331    3.41344361576503
C         2.57073883769832   -0.02977613666269    3.45103075880665
C         0.21387292823843    1.06218354211084    3.28768438036492
C         0.75247991704378    2.46093326407729    3.16070774668438
C         0.14749202774178    3.27180861279886    2.01202911122438
C         0.81455048908302    4.64059539048296    1.92708459059833
C         0.65804266261243    5.39650382386610    3.24394660677281
C         1.24703728967579    4.58705884568737    4.39638035023447
C         0.57963166483610    3.21772869472390    4.48759108739123
H        -3.22363947807770    0.94151648974487    3.50445794846257
H        -2.27812871125335    2.42224135352014    3.30479454160592
H        -2.39668702266257    1.64419641221056    4.88698197739513
H        -2.09348240905820   -2.64375816114300    4.16600603406268
H        -2.33770911615633   -1.42866978227404    5.41848013778653
H        -3.16827465783127   -1.27167612351373    3.87301955179518
H         0.06870399170519   -3.32947395666441    4.06787851984289
H         1.74438319815132   -2.77254549835690    3.95552442726692
H         0.81121287776305   -2.49128706535190    5.42355323650398
H         3.01595268106086   -1.00892317060638    3.59970397240804
H         2.96512338279894    0.39630932788426    2.53048970763251
H         2.87463738437589    0.61251104142021    4.27802593259357
H         1.82489034174848    2.38351348528928    2.95908541178477
H        -0.92290837175413    3.41308619092866    2.15953548100756
H         0.29180498827614    2.73053186696033    1.07698316857233
H         0.36856919084077    5.21233648731145    1.10991598142364
H         1.87632843712533    4.51893828062040    1.70119049703930
H        -0.40237301796240    5.58044336448562    3.43267571486623
H         1.15740907001682    6.36528347003492    3.17863207163893
H         1.10938120567671    5.12483568361324    5.33679272093792
H         2.32083434503760    4.46389017987236    4.23796034734189
H        -0.48035859557509    3.35108157015845    4.70233159461006
H         1.02212875600595    2.64247416830972    5.30329318472159
C        -2.76090428198231    7.94197288143805    0.00473894487468
O        -2.96211747202891    6.55609931071075    0.26469571702614
C        -2.23290113067959    5.69593187340080   -0.45190989560619
O        -1.42417510391881    6.04148077746929   -1.28536721864583
C        -2.51807266546740    4.27994132142666   -0.10757529644077
C        -3.52019122119593    3.92884605162748    0.79610140611059
C        -3.75665185652624    2.59885586025917    1.08082701962635
C        -2.98120603226749    1.59855366675917    0.48975832191579
C        -3.27641293279550    0.17357597393205    0.68846260534670
C        -4.60395149321324   -0.26333553403443    0.63171729933768
C        -4.89365980749293   -1.61610704604940    0.60919739218791
C        -3.84100660937356   -2.51789667089535    0.57511643958994
C        -2.54458322412216   -2.02792985008425    0.67284936400532
C        -1.36493722684932   -2.84052779741537    0.53081942503244
N        -0.22149328587233   -2.30351219199242    0.78125817335164
C         0.95662951928331   -3.00411719463499    0.33617521855984
C         2.32926153875170   -2.56940569042584    0.85986187808072
C         2.69519199333999   -4.05048919796408    1.05532883649496
C         3.36618879024557   -4.48971140892654    2.33514983504593
O         3.38863886915526   -5.62903052988192    2.73214366260328
O         3.94314706041621   -3.47067619106622    2.97428735150032
C         4.68198402933838   -3.77765307482211    4.15792838261643
C         1.20981227686731   -4.42651578656628    0.88452083255649
N        -2.27037604885454   -0.70403778447935    0.80023004322784
C        -1.98619756882625    1.95351701488609   -0.42087715927926
C        -1.76212508669303    3.28285428367759   -0.71891675811579
H        -3.31457289306871    8.47525876437488    0.77236313527645
H        -3.13576807800113    8.19705664806627   -0.98821164938909
H        -1.69759308390580    8.18442451031650    0.05118889261454
H        -4.10905351920366    4.70150907368483    1.26399158190744
H        -4.53603010036995    2.33969190023915    1.78101176839527
H        -5.39138534878173    0.46990333150609    0.56664501937931
H        -5.91562522344394   -1.95863201067999    0.57480142881943
H        -4.00943886836886   -3.57830866194082    0.48325604636316
H        -1.44697013942910   -3.83598502193418    0.10718680143128
H         0.94045792307977   -2.99476304164650   -0.75784923828045
H         2.94020072580865   -2.00260283219334    0.16499754843963
H         2.26302456058375   -2.02439007567047    1.79270720566706
H         3.30198551345830   -4.43989847281132    0.23518346362387
H         4.02031478973122   -4.19429746141561    4.91912914816690
H         5.46321790096708   -4.50537340223301    3.93629174076099
H         5.11758938320634   -2.83995951085443    4.49133438594434
H         0.99771944609056   -5.25424476616442    0.21431904599706
H         0.71808575572100   -4.59820912880483    1.83911377892902
H        -1.40415587176418    1.18743574828451   -0.90664848289016
H        -0.99863648184344    3.56933314085737   -1.42521503745498
Cl        0.89426608634420    0.31535174517640   -0.08778924813965
