64
 energy: -111.011062413529 gnorm: 0.000367187915 xtb: 6.4.1 (afa7bdf)
Ir        0.66593775897115   -1.63013106033600    1.77674134557036
C        -1.82541167590223    0.01507315983291    3.35624449285676
C        -0.42864430122225   -0.49574810625838    3.35637730358437
C         0.01559030276508   -1.71198587963105    3.93891002320874
C        -0.83135604759352   -2.68258606541107    4.68281243340108
C         1.45610341895031   -1.75832504733253    3.83851577424403
C         2.33592539993674   -2.79246863274023    4.42546824005789
C         1.91609540758902   -0.53393184838491    3.22417039713023
C         3.33090600714951   -0.09431894431142    3.13312942766124
C         0.74926848530830    0.23417607509576    2.89118970053233
C         0.75295147278613    1.60203290195245    2.35403490134965
C         0.12749717709625    2.62057194540313    3.07130466364890
C         0.17694708556102    3.91083839042026    2.57672657875405
F        -0.41940616697151    4.89082609980212    3.27684043927308
C         0.80800164322108    4.23141249233881    1.38756679352626
C         1.40994452498520    3.19517875993565    0.69437061530245
F         2.02352117690939    3.46649588442805   -0.46993341015606
C         1.40141401228816    1.89092187918063    1.15388320475171
H        -1.94691759195496    0.83744438076368    2.65725978325075
H        -2.07173833354409    0.37053658615849    4.35767507309838
H        -2.53614154008458   -0.77026012008632    3.11025288702667
H        -0.41478024189821   -3.68498488396708    4.64936402938003
H        -0.87350345596156   -2.37569208778680    5.72881283667014
H        -1.84743789483581   -2.70109825573150    4.29994880581922
H         2.52604842534273   -2.53109351267373    5.46878136455230
H         1.87101483499288   -3.77453186607484    4.41184995092439
H         3.29215836334666   -2.83520839310196    3.91185207040094
H         3.92508870920025   -0.80194544830446    2.55848248905399
H         3.40402328708431    0.88252412732836    2.66495314469437
H         3.75290940425340   -0.04311413415690    4.13654773402158
H        -0.35825337939949    2.42865428863645    4.01348032688461
H         0.83470074196838    5.24299077135053    1.01855776039841
H         1.87507014160677    1.11326655318967    0.57403304517523
C        -2.35291988168210    5.90943777812355    0.55039912798172
O        -2.54745816704126    4.53030006165424    0.23074205974968
C        -3.58703464250588    4.21813470091477   -0.53934210360147
O        -4.38113108096221    5.01776987816583   -0.97568150589745
C        -3.67590820356981    2.75036452545105   -0.80574050188301
C        -4.80185393037204    2.26052034682204   -1.46184973316945
C        -4.87595328308443    0.89379580422839   -1.71761586984334
N        -3.92656910570145    0.04971778173780   -1.38251847120368
C        -2.84046909058121    0.51020286208263   -0.76207656619499
C        -1.80933737117181   -0.46150908402112   -0.43191364734184
N        -1.84029290873135   -1.65161128620408   -0.84230900259488
C        -0.99570363783953   -2.64630032198456   -0.50920471896860
C        -0.85911292658300   -3.04673259501698    0.85887201846452
C        -0.04045701309161   -4.16297975326587    1.16462697682924
C         0.66874459315854   -4.79453417151589    0.15705936010778
Br        1.80867845390767   -6.26859557773779    0.59258890637020
C         0.52244662148681   -4.40580610274188   -1.17458509999571
C        -0.31263097611922   -3.36278241204312   -1.50433781924528
C        -2.67159233428171    1.85905750070773   -0.43859429271634
H        -3.29617127730184    6.45065674932619    0.46928629045614
H        -1.63070630781029    6.33868825556630   -0.14504177750416
H        -1.97546058599980    5.94958646069543    1.56894491816408
H        -5.58605947388234    2.93938673746964   -1.75642024217832
H        -5.73373035924707    0.46399610270960   -2.21543839272426
H        -0.95637916390134   -0.09776503036554    0.17656854052574
H        -1.67986810469476   -2.80403145807233    1.53078947866605
H        -0.05103114671480   -4.59280653246860    2.15647625637119
H         1.05213261564991   -4.93796300229352   -1.94948318333875
H        -0.44479481437652   -3.07317293231549   -2.53425688786420
H        -1.78571209185350    2.21155187177894    0.06694750303913
Cl        1.96231144184173   -1.58143216659225   -0.07157584607995
