82
 energy: -122.618313960918 gnorm: 0.000760142802 xtb: 6.4.1 (afa7bdf)
Ir        0.50316150691657   -0.42488892859355    1.70802699696878
C        -0.93574101753833    0.89826932035168    4.46215760137423
C         0.30760903404768    0.51323462612409    3.73509967922562
C         1.00404189958942   -0.72342555171861    3.91159812124632
C         2.22038482057985   -0.66311906678689    3.14500811229152
C         3.34688023884300   -1.64146566142386    3.19169990514547
C         2.30605733986592    0.63797314421660    2.55473550283728
C         1.10009572191838    1.35431999977897    2.87292951576943
C         0.85788592419807    2.77237032979699    2.57342729539823
C         0.56699915341341    3.67350994833856    3.59681257047968
C         0.37354964188679    5.01161095285647    3.31600542824691
C         0.46682801873151    5.49123344066895    2.01021395851094
C         0.27342834301936    6.91885644370227    1.71533039464176
C         1.09731503579169    7.56821242889874    0.79783117479630
C         0.92080949751315    8.91122744775697    0.52055401339230
C        -0.08450544516637    9.62642872518608    1.15111836200335
C        -0.91035243725084    8.99049559297961    2.06391609025876
C        -0.73179890457791    7.64871473031467    2.34674798204076
C         0.75607180440342    4.58576635435181    0.98994847978478
C         0.94854329011040    3.24706031092868    1.26485358847700
C         3.50328785484109    1.19349629157358    1.86975026990098
C         0.63057545834277   -1.75436586546532    4.92175283612459
H        -0.68489851120418    1.13651835432805    5.49673688007663
H        -1.64976577498907    0.07825141679500    4.47856895995769
H        -1.40185550043125    1.77041541857194    4.01255724709335
H         4.00979417598808   -1.38940040706381    4.02040952174670
H         3.92181765777134   -1.60484854733173    2.27041527636618
H         2.99059447348584   -2.65754961374416    3.33654629090785
H         0.52334225927622    3.33014346269560    4.61849187809937
H         0.17352073526388    5.70064383862098    4.12280205570924
H         1.89523322895231    7.02225053027600    0.31570251527169
H         1.57075806778752    9.40378325606756   -0.18833513276785
H        -0.22312363328239   10.67506776631120    0.93227069083437
H        -1.69684193269989    9.54423523072508    2.55593570897089
H        -1.39058079198785    7.15771539345078    3.04817865523396
H         0.81388441646252    4.93288239999135   -0.03069207172654
H         1.15191835961187    2.55507243110099    0.46104421425085
H         3.65714990321241    0.72190575762944    0.89963278191769
H         3.39207360769866    2.26376642156199    1.71480642491844
H         4.38790722770175    1.00527199959229    2.47718464025111
H        -0.40135523655262   -2.07785670263305    4.80359902456803
H         1.29030857762544   -2.61539373936648    4.87285285827436
H         0.72199322597528   -1.31306872664216    5.91512325099381
C         2.57640740021034   -7.86132734746616    7.93390057281680
O         3.49881294940758   -7.60221726891616    6.89555475011385
C         3.05675934789418   -6.99323949654405    5.76382803059417
C         1.74507301128225   -6.59006193354068    5.52937913935556
C         1.41366838635682   -5.96912589632797    4.33849232133258
C         2.36572742578957   -5.74228880245054    3.34960327591473
C         2.01231013929022   -5.07199240006238    2.08986819196244
C         2.56991991358964   -5.47957776904139    0.87689359573563
C         2.24185271828191   -4.83583925896350   -0.30318843774056
C         1.35868897743377   -3.77186152613207   -0.30318969660860
C         0.80877926438083   -3.34401485499859    0.90501849466264
N        -0.05453160425100   -2.23692440737808    0.93020527107425
C        -1.09722727048265   -2.22436271872713    0.16371423894533
C        -1.86548057895429   -1.01377557222634    0.12500099404357
C        -3.03096803181370   -0.83924801851299   -0.62248483057768
C        -3.66415535715617    0.38871580144316   -0.59912985109595
C        -3.10627170159203    1.41335118547358    0.15877362794541
C        -1.94392849001065    1.17336818082499    0.87010428269374
N        -1.33902377642285   -0.01164736205009    0.87130219204399
C         1.12699694937587   -3.99872148014088    2.08896482135128
C         3.67735039405808   -6.15671862588042    3.59052131430298
C         4.01991965147710   -6.76517761176962    4.77644423382343
H         1.78039160644762   -8.53435618676284    7.60129700450167
H         3.15177157333141   -8.34529640020332    8.72087667261824
H         2.14059713980273   -6.93488072530232    8.31944960768279
H         0.97422212013757   -6.75846273629655    6.26420802008132
H         0.38609571178943   -5.68373512670929    4.17026102070906
H         3.24954746347120   -6.31704666338898    0.85861783636091
H         2.67772021668880   -5.16555023079680   -1.23376611695007
H         1.12598147787526   -3.24171232080159   -1.21336016913685
H        -1.37293000297127   -3.08365551341370   -0.43715409674771
H        -3.41293794486912   -1.65887645977500   -1.20911283485218
H        -4.56873934951937    0.55211049654564   -1.16331774187497
H        -3.56341901246704    2.38835246913803    0.19928938281313
H        -1.48132403663066    1.95904782149464    1.44984100301299
H         0.66304797879249   -3.67344163655625    3.00492360170752
H         4.44225356329048   -5.97551181277532    2.85088054956869
H         5.03406058431374   -7.07817856131838    4.96846585890399
Cl        1.34008187738315   -0.08226018477509   -0.49308468096957
