64
 energy: -104.235560316621 gnorm: 0.000339561284 xtb: 6.4.1 (afa7bdf)
Ir       -0.12052190832462   -0.74984343404860    1.89817920887147
C        -2.13337488247205    1.07262142845428    4.02487631255908
C        -0.82832676002525    0.44955944057902    3.67084723863163
C        -0.36771602670937   -0.82579383274075    4.14825167952684
C        -1.14910171089469   -1.74715206197133    5.02249776430172
C         1.05346311730946   -0.89073862113793    3.93533017846518
C         1.96672033475252   -1.84308114099213    4.61932711887687
C         1.44593937924487    0.25993751683537    3.19792286694619
C         2.84415055937946    0.66372947817300    2.88043462879935
C         0.27235162189657    1.10179111631193    3.03669018813220
C         0.28181260251860    2.50029774166207    2.57594878362563
C         1.11279802091487    3.41721850356057    3.21605778942984
C         1.10117795696491    4.73692162209323    2.80685181876781
F         1.91025176787812    5.61561684284245    3.43406440387328
C         0.29351740077895    5.19374698007439    1.78066123237900
C        -0.51930174098922    4.25929618745153    1.16484482076473
F        -1.32492172230739    4.66171274120507    0.16031444328009
C        -0.54510715901971    2.93018472734995    1.54208187007300
H        -2.30878300570268    1.97818691227191    3.44980170321851
H        -2.09601374989655    1.34979883271708    5.07980959817287
H        -2.96373757840268    0.38177496885616    3.90065468788814
H        -0.82025964846938   -2.77557567278677    4.90268605603935
H        -0.99792561933940   -1.46407031529312    6.06479634874135
H        -2.21135837415869   -1.68944826537087    4.80512941779895
H         2.19159458966005   -1.42912298749990    5.60432766073253
H         1.50322024907831   -2.81407668571996    4.77208095994067
H         2.90946436655422   -1.94785277305842    4.09019519960163
H         3.47368956386007   -0.20538813098993    2.70683161183465
H         2.87035163878534    1.31199559956671    2.00775719758602
H         3.26741032554660    1.20725898249326    3.72568831274673
H         1.75204090898200    3.12050445329300    4.03094198330515
H         0.30186060099633    6.22585258941790    1.47270918765784
H        -1.16360432592656    2.23733296511294    0.99550609542041
C         6.80117012730708   -3.60305866814843    2.57186327308716
O         5.64657287184011   -3.90372661597060    1.78589753044889
C         4.57982187875343   -3.13242751680420    1.94330306820028
O         4.52854725286245   -2.19605712975565    2.70763203504889
C         3.44486060069655   -3.57724120282162    1.06041585782932
C         2.11910334025260   -3.98156180352519    1.74447293888042
C         1.36784907715693   -3.27607860691789    0.60161270294263
N         0.15166041126555   -2.55205022490474    0.86030387951628
C        -0.87923701562142   -2.91947010359202    0.17555742704967
C        -2.07417771227530   -2.13161220935592    0.23095081045407
C        -3.22252713398906   -2.41557190505556   -0.50975573216385
C        -4.28200228453099   -1.52872640266732   -0.47242271786051
C        -4.15213258290184   -0.37616228571871    0.29365597657980
C        -2.98554983655410   -0.16515839918578    1.00830996816916
N        -1.97004815458895   -1.02464616488585    1.00046265761001
C         2.65360237039838   -2.47693887502979    0.32729842260953
H         6.51360359907754   -3.42631815202936    3.60926683757781
H         7.45488239580142   -4.46672082378038    2.49125824261957
H         7.29512203082221   -2.71247058826761    2.18045040028144
H         3.81032602442223   -4.35081036041220    0.38653289095936
H         1.93263561020437   -5.04484793724851    1.86310732066993
H         1.98799908975822   -3.46226411449091    2.68626291380440
H         1.19551918582438   -3.98374287547011   -0.21533446139712
H        -0.84314401568453   -3.77143649438164   -0.49629519855172
H        -3.26195800040922   -3.31257064591316   -1.10653172130562
H        -5.18241233484090   -1.71903443355286   -1.03448199306528
H        -4.94245344982877    0.35516206093272    0.34022032563868
H        -2.87317441522700    0.72575164322551    1.60480082832102
H         2.89612426818874   -2.29247647198814   -0.71459435247704
H         2.66607629681663   -1.54060273649407    0.88041771617590
Cl        0.54013671249066    0.21851333549729   -0.17740021566661
