85
 energy: -140.427058011863 gnorm: 0.000380755893 xtb: 6.4.1 (afa7bdf)
Ir       -0.15504914246597   -0.15296770175196    1.52805872577613
C        -1.59291303896135    1.50295458867990    4.14073743125662
C        -0.36974912766492    0.93197917391367    3.51166963736952
C         0.09878680107083   -0.41058282059244    3.71155244747467
C         1.40871213242642   -0.51556195777845    3.11849662080199
C         2.37859982885532   -1.61995127875649    3.34694593222496
C         1.69480829814990    0.70731302310698    2.45408058242664
C         0.58494238985951    1.61840205951018    2.69651941046820
C         0.63059360669205    3.06386413132052    2.43169782014686
C         0.48920110821610    3.96106212412984    3.49055589880735
C         0.61289456161087    5.31917150265654    3.27752164843302
C         0.88221247702584    5.82457308089023    2.00623834099701
C         1.05622086101970    7.26928734461567    1.79343450681605
C         2.06688730099938    7.74066312064054    0.95739840005322
C         2.24961737679236    9.09851728329727    0.77074961783435
C         1.42049564521185   10.00749432294902    1.40790625798703
C         0.40936501913189    9.54990156714009    2.23712933312484
C         0.23102865373763    8.19255438577884    2.43254377323302
C         1.00286742823743    4.92502150216141    0.94769620788226
C         0.87979527262997    3.56576054388403    1.15473374396413
C         3.00556321904051    1.06422731950358    1.84489044008924
C        -0.51876914865726   -1.40907820287835    4.62920004337336
H        -1.42465895216703    1.59534515466429    5.21421506976095
H        -2.45154985055675    0.85007614784699    3.99945873719854
H        -1.82271881146166    2.48342019976438    3.73546573964570
H         2.89780811511802   -1.42818151426427    4.28703452322812
H         3.12111193626123   -1.66362089891268    2.55606823187861
H         1.88583573689542   -2.58511956053211    3.42937601606293
H         0.32095804821645    3.59032463577877    4.48947682119171
H         0.53115880733819    5.99714219572357    4.11356484248763
H         2.72928747119930    7.03981481600529    0.47061049157371
H         3.04376395554952    9.45072964772008    0.12847267238565
H         1.56315919364759   11.06781931285457    1.25966225543130
H        -0.24125161428409   10.25518177624325    2.73366502669609
H        -0.56607893200136    7.84560997206440    3.07353003607634
H         1.18622230747404    5.29606662234071   -0.04939173778552
H         0.95884887194114    2.88679110681772    0.31897337250773
H         3.31305613377642    0.32060497808520    1.11226527330000
H         2.95757678684112    2.03452527159923    1.36032829452878
H         3.76324054628427    1.10068515421744    2.62799886856992
H        -1.60260669747034   -1.33202132841963    4.62330761234744
H        -0.23127361858028   -2.42149341994453    4.35831763192372
H        -0.17144898484416   -1.22212386708060    5.64598763475741
C        -6.64833835564650    6.12867316553265    0.56658131281743
C        -5.39253698490410    5.29049750919020    0.74549288009038
O        -5.75215698838958    3.92705657297761    0.53853192872290
C        -4.83465851636683    2.96083494333757    0.62802386323897
C        -3.46693890407912    3.17183162455471    0.92885378868275
C        -2.60024710246934    2.12039546289809    1.02378338116830
C        -3.02605919686862    0.79527454198764    0.80680577283226
N        -2.15885404921148   -0.23559943533142    0.89931283487668
C        -2.55664093234173   -1.46258485934891    0.52904226896504
C        -1.52658684856944   -2.45036969516294    0.49882596869370
N        -0.32618635728188   -2.09024837637818    0.82799909714429
C         0.70019125568842   -3.04255004668322    0.85290678069820
C         0.45250762532734   -4.28634930498907    1.43642466287262
C         1.44843660228282   -5.24305373464975    1.51571133981253
C         1.16074733278184   -6.55063164387004    2.19049650959246
F        -0.12109422148949   -6.93670725611597    2.05536773857021
F         1.91483271516875   -7.56015559249138    1.73277153767958
F         1.38259491204137   -6.49453247878122    3.52491127329188
C         2.72187670094224   -4.97373988481640    1.01570087039242
C         2.97330157959933   -3.75156503101980    0.43877915396050
C         1.98568907266055   -2.76146042640556    0.33758334677479
O         2.34154056148493   -1.62163009192574   -0.23915054891053
C        -3.88845637348379   -1.74645014632732    0.15680576500819
C        -4.80877197412398   -0.74069685633081    0.15160157599504
C        -4.39614807933297    0.57977903229522    0.45046262968600
C        -5.27092659928296    1.66515018964268    0.39058010025406
H        -7.40075140649365    5.83939862109056    1.29494793824978
H        -7.05550654642810    5.98325777739396   -0.43005523140153
H        -6.40758736056735    7.17886424364577    0.70165125114746
H        -4.63123259387714    5.58788158715969    0.01412993442286
H        -4.99202490925824    5.41763126196373    1.75830640917094
H        -3.09288763883347    4.17135856564170    1.07871359116645
H        -1.55659173002240    2.30595295566122    1.22106497424030
H        -1.74288710046356   -3.45400482307074    0.14999942832602
H        -0.52074124924881   -4.48920368807560    1.85760324223692
H         3.49735584275039   -5.72002149563813    1.08018897429600
H         3.94783004489516   -3.52051790955755    0.04066179543206
H         1.60344369403266   -1.00034100356080   -0.45459880564355
H        -4.15087540966806   -2.75757965018102   -0.10751352135273
H        -5.84094508671931   -0.92592098634527   -0.10110085962548
H        -6.30630319984080    1.50554654602109    0.13595835627382
Cl        0.23697780352761    0.47970130105388   -0.76177354407628
